/*--------------------------------*- C++ -*----------------------------------*\
| =========                 |                                                 |
| \\      /  F ield         | OpenFOAM: The Open Source CFD Toolbox           |
|  \\    /   O peration     | Version:  v2006                                 |
|   \\  /    A nd           | Website:  www.openfoam.com                      |
|    \\/     M anipulation  |                                                 |
\*---------------------------------------------------------------------------*/
FoamFile
{
    version     2.0;
    format      ascii;
    class       volVectorField;
    location    "10";
    object      U;
}
// * * * * * * * * * * * * * * * * * * * * * * * * * * * * * * * * * * * * * //

dimensions      [0 1 -1 0 0 0 0];


internalField   nonuniform List<vector> 
16172
(
(0.95854725 -0.0024163127 1.744395e-14)
(0.96760802 -0.0048120841 0)
(0.96389313 -0.00267217 -9.7992063e-14)
(0.97077275 -0.0048200731 3.7018822e-14)
(0.97331638 -0.0079992312 5.6498439e-16)
(0.9674892 -0.0025089021 1.4133342e-13)
(0.97612425 -0.0076165338 -7.9706268e-14)
(0.97253684 -0.0046309617 -2.0249507e-13)
(0.98195308 -0.011282251 0)
(0.97171548 -0.0033338857 0)
(0.98500595 -0.011089756 8.612396e-14)
(0.97724902 -0.0072648531 0)
(0.97551992 -0.0058840342 2.8682756e-13)
(0.98700169 -0.014758758 6.627308e-14)
(0.97449978 -0.0022218792 -3.5425383e-13)
(0.97557091 -0.0039551743 0)
(0.98452596 -0.010014192 0)
(0.98964086 -0.01313631 -3.6316592e-13)
(0.98016467 -0.0077924224 -6.7288464e-13)
(0.99118442 -0.015142472 7.5892451e-14)
(0.98986702 -0.017843021 0)
(0.97977718 -0.0047371219 0)
(0.97347566 -0.0014394979 3.7035979e-13)
(0.98136151 -0.0069668828 -2.0642112e-13)
(0.99083507 -0.01280334 -1.0349999e-13)
(0.98648686 -0.0099788302 0)
(0.99402888 -0.015979841 7.6692535e-14)
(0.99412851 -0.018387355 5.3940162e-15)
(0.99087589 -0.020999761 2.2570817e-14)
(0.97962334 -0.0029438948 5.1599479e-13)
(0.98287714 -0.0050172391 -3.0104826e-13)
(0.98221948 -0.0066902729 -6.4269985e-16)
(0.98908588 -0.010121595 1.1457168e-13)
(0.99304333 -0.01283996 -7.1593971e-13)
(0.99673985 -0.01922122 7.8379082e-14)
(0.996167 -0.015845522 -3.2529723e-13)
(0.99454619 -0.021340073 -3.6215353e-14)
(0.99199282 -0.0239777 -2.3431475e-14)
(0.98236547 -0.0031518019 -5.1779181e-13)
(0.98994407 -0.0085476886 1.1390899e-13)
(0.9885252 -0.008984245 -4.9197339e-14)
(0.99479261 -0.012323799 0)
(0.99504982 -0.013497734 4.7602613e-13)
(0.99961482 -0.020050002 0)
(0.99661651 -0.021914265 -1.0899663e-13)
(0.99894708 -0.017684248 -3.2718909e-13)
(0.99407391 -0.023495278 4.0262665e-14)
(0.9948524 -0.025723679 2.0654385e-13)
(0.98928924 -0.0063195236 6.110891e-13)
(0.98099322 -0.0013291609 0)
(0.99837269 -0.0115356 2.2918424e-14)
(0.9918444 -0.0077756487 -4.1818035e-13)
(0.99614979 -0.012230998 -2.1853667e-14)
(0.99910121 -0.015696393 0)
(0.9989111 -0.02305461 1.7031081e-13)
(1.0032736 -0.02224979 0)
(0.99571116 -0.023431212 0)
(1.0024442 -0.01855959 6.7570113e-13)
(0.99583885 -0.025157795 1.6276802e-13)
(0.99371707 -0.027622424 0)
(0.99751038 -0.027429084 -4.3552921e-13)
(0.98488471 -0.0020544696 1.7747007e-13)
(0.99520601 -0.007308091 8.1999268e-14)
(0.99950061 -0.010867537 4.2291954e-14)
(1.0031667 -0.01511851 4.0298528e-14)
(1.0003386 -0.015902929 -3.4880788e-14)
(0.99866138 -0.025158757 -3.9606139e-22)
(1.0015142 -0.024062255 0)
(1.0067341 -0.023250178 0)
(0.99678714 -0.025330456 6.6116965e-14)
(1.004123 -0.018630196 0)
(0.99679432 -0.029411683 1.8423075e-13)
(0.99864695 -0.027598678 -1.0821851e-13)
(0.98538798 -0.0015652098 6.2392009e-13)
(0.98883465 -0.0032291271 -6.3344787e-13)
(1.0016943 -0.010284911 -3.8404888e-14)
(0.99911119 -0.0074309308 0)
(1.0045101 -0.014449594 1.900095e-13)
(1.0068285 -0.018553901 2.7645781e-13)
(1.0007159 -0.02703987 -2.0583186e-13)
(1.0028543 -0.026625168 0)
(1.0056084 -0.026127683 3.659593e-14)
(1.0096001 -0.023745041 3.3059305e-13)
(0.99978982 -0.031309036 -1.6741878e-13)
(0.99518901 -0.030759589 -2.8468682e-13)
(1.0011186 -0.029814088 3.5154777e-13)
(0.98964786 -0.0025734318 -2.6191745e-21)
(1.0059417 -0.011054498 0)
(1.0068088 -0.01337292 0)
(0.9989107 -0.0068408363 0)
(1.0080793 -0.016484969 -3.6453946e-13)
(1.0098002 -0.020977984 -7.7135149e-13)
(1.0027322 -0.030313443 4.6878233e-14)
(1.0055262 -0.030032306 -4.1581308e-22)
(1.0083737 -0.029958345 -6.5607894e-14)
(1.0088471 -0.026494161 -1.3437164e-13)
(1.012639 -0.025201708 -2.5672982e-13)
(0.99841695 -0.032793458 0)
(1.002488 -0.033888187 0)
(0.98825464 -0.00099067795 -2.3884384e-13)
(1.0061189 -0.0098841317 -1.8538192e-13)
(1.0105965 -0.013720077 -2.9576249e-13)
(1.0099196 -0.015114725 6.8220551e-13)
(0.9998189 -0.0052339315 0)
(1.0118054 -0.019467856 0)
(1.0134962 -0.022595719 1.5460243e-13)
(1.0044747 -0.032737508 0)
(1.0064205 -0.03327668 -1.2181168e-13)
(1.0098918 -0.033289656 8.2206387e-14)
(1.0113421 -0.029659588 1.7717276e-14)
(1.0158643 -0.027990663 2.2134759e-13)
(1.0017187 -0.035634471 0)
(0.9966905 -0.034087653 -5.6777989e-13)
(1.0059355 -0.036921207 0)
(0.9911864 -0.0027181065 0)
(1.0073984 -0.0087708214 -9.8759241e-22)
(1.0119588 -0.012248348 9.9755184e-14)
(1.0146356 -0.015661876 0)
(1.0138522 -0.018091316 -6.8056036e-13)
(1.0019765 -0.0044634698 0)
(1.0131216 -0.019649637 0)
(1.0175967 -0.024650222 0)
(1.0078331 -0.037195432 4.7166293e-14)
(1.0117806 -0.037151284 3.9191568e-14)
(1.0128632 -0.033222014 -8.7038171e-14)
(1.0141326 -0.029247889 0)
(1.0195321 -0.029692819 -1.6308664e-13)
(1.0001651 -0.036643312 -3.194119e-22)
(1.0051586 -0.038633575 3.0510718e-13)
(0.99588577 -0.003368267 7.7992989e-14)
(1.0096388 -0.0082285375 -6.8645014e-14)
(1.0138264 -0.01139949 2.0270063e-13)
(1.0160298 -0.015295254 0)
(1.0153751 -0.017758817 0)
(1.0045587 -0.0039377495 2.4971809e-14)
(1.0159983 -0.020350201 6.005205e-13)
(1.0212924 -0.027353841 -1.5583959e-13)
(1.0193536 -0.022477844 -3.8135973e-13)
(1.010801 -0.040786247 1.4839224e-13)
(1.014325 -0.041072589 -7.8704192e-14)
(1.0148635 -0.036882022 6.3353333e-14)
(1.0161578 -0.033056568 3.6645935e-14)
(1.0195474 -0.032803602 0)
(1.0231035 -0.03087224 4.1385782e-13)
(1.0037887 -0.03981103 0)
(0.99841026 -0.037588009 8.7562493e-13)
(1.0088719 -0.042085597 -2.7746309e-13)
(1.000166 -0.0030607209 -1.2464686e-13)
(1.0161138 -0.01077374 0)
(1.0118855 -0.0075471715 0)
(1.0174848 -0.01399501 0)
(1.0196957 -0.017282993 -3.4445279e-21)
(1.0187748 -0.018448812 6.3391365e-13)
(1.0036468 -0.0024972492 -3.5939142e-13)
(1.0235248 -0.025428871 -2.9938026e-13)
(1.0244352 -0.030339896 -1.8771529e-13)
(1.0215402 -0.021228651 1.6864068e-13)
(1.0149971 -0.045611666 -1.3775472e-13)
(1.0180094 -0.04527348 4.2431653e-14)
(1.017453 -0.040639872 -7.6107616e-14)
(1.0180847 -0.036543039 -4.9025064e-14)
(1.0234734 -0.03372739 0)
(1.021444 -0.036763405 -8.3635308e-14)
(1.0021091 -0.040406506 1.7204881e-13)
(1.0073848 -0.043447951 -1.6086333e-13)
(1.0130087 -0.045648671 0)
(1.0192967 -0.013101705 0)
(1.0187393 -0.010751947 2.9935533e-13)
(1.0185613 -0.0095679821 0)
(1.0126646 -0.0062286088 0)
(1.0212617 -0.015900377 -2.1496661e-13)
(1.02357 -0.019737814 -3.0793236e-21)
(1.0102731 -0.0048591092 0)
(1.0023028 -0.0011419143 6.1910513e-13)
(1.0252368 -0.023005356 -1.9123411e-13)
(1.0270583 -0.027393075 7.3516062e-13)
(1.027421 -0.032840107 0)
(1.0263313 -0.028956276 -6.6801502e-22)
(1.0178388 -0.048813871 0)
(1.0213446 -0.045791668 -3.8628138e-14)
(1.0198148 -0.049325727 0)
(1.0200819 -0.040350882 -5.0224917e-14)
(1.0252775 -0.037223079 7.457771e-14)
(1.0264671 -0.033502764 0)
(1.0218552 -0.039028273 1.1310539e-13)
(1.0016068 -0.042710076 -3.2218067e-13)
(1.0059741 -0.042972837 6.0620772e-13)
(1.0108103 -0.047348957 0)
(1.0127828 -0.048150334 -8.4370327e-14)
(1.022251 -0.014267159 -3.7661309e-13)
(1.0232357 -0.01302088 3.5378642e-13)
(1.0241669 -0.011504723 0)
(1.0184918 -0.0078518031 -2.0513367e-13)
(1.0251497 -0.018019201 -1.882918e-13)
(1.0272127 -0.021576515 0)
(1.0170717 -0.0060414806 1.8167547e-13)
(1.0071016 -0.0018659933 0)
(1.0287638 -0.025545325 2.0191204e-13)
(1.0301818 -0.029054114 -1.210354e-13)
(1.0308974 -0.034221302 1.445567e-13)
(1.0286856 -0.03070059 -2.6929627e-13)
(1.0161904 -0.050349327 0)
(1.0247366 -0.045493955 2.2313325e-13)
(1.0239083 -0.048672789 4.2552306e-13)
(1.0194969 -0.052870622 1.0558235e-13)
(1.0229115 -0.050403667 0)
(1.024365 -0.042507759 0)
(1.0287406 -0.041376246 -6.7533756e-14)
(1.0290598 -0.0374784 -1.9545677e-13)
(1.0260846 -0.042090517 -2.7994526e-13)
(1.0057649 -0.046174663 -8.6365928e-14)
(0.99961156 -0.044941201 0)
(1.0092372 -0.048985151 0)
(1.0122863 -0.051882425 1.1263248e-13)
(1.0263112 -0.016672597 0)
(1.0278337 -0.014974595 -1.5767708e-21)
(1.0287268 -0.013438238 0)
(1.0242476 -0.0098592491 0)
(1.0292981 -0.02041086 -3.5277131e-13)
(1.0309067 -0.024478244 0)
(1.0237116 -0.0080495611 -4.8066777e-13)
(1.0137417 -0.003946135 -2.0313134e-13)
(1.0052145 -0.00091942876 0)
(1.0313869 -0.027194081 0)
(1.0331913 -0.030894309 0)
(1.0317647 -0.032438188 -2.9064096e-13)
(1.0347147 -0.035609626 4.3730001e-13)
(1.0310563 -0.035903267 0)
(1.0157997 -0.054914699 -4.9860516e-13)
(1.0285927 -0.046946912 -1.4937347e-22)
(1.0260289 -0.04906314 -9.4573326e-23)
(1.0232916 -0.054339907 -1.7278006e-13)
(1.0194226 -0.057098932 7.8985326e-14)
(1.0266488 -0.052638525 -3.7107195e-13)
(1.0315491 -0.045130646 1.4786637e-13)
(1.0323523 -0.041553821 0)
(1.0329443 -0.039684286 2.0647516e-13)
(1.0294248 -0.045112461 5.299597e-13)
(1.0055569 -0.049566906 -1.5176577e-14)
(1.0024737 -0.049924745 -4.1634665e-13)
(1.0082782 -0.052070257 0)
(1.0109597 -0.054796685 1.9750597e-13)
(1.0303391 -0.018383805 3.5979276e-13)
(1.0321118 -0.017346899 -6.1188945e-13)
(1.0292778 -0.011792112 0)
(1.0328379 -0.015438261 2.8368746e-13)
(1.0327995 -0.022357877 3.7598348e-13)
(1.0324526 -0.024435132 9.1536451e-14)
(1.0294205 -0.010152448 3.4520499e-13)
(1.0235589 -0.0067092144 1.8260767e-13)
(1.0096938 -0.0015209469 -1.0956726e-13)
(1.0177444 -0.0049029899 4.2930014e-13)
(1.0330383 -0.026828895 4.9810847e-14)
(1.0362443 -0.03355187 -5.2974299e-14)
(1.0354924 -0.029650097 0)
(1.0348756 -0.033862997 -4.0307414e-13)
(1.034396 -0.037817953 -2.8940014e-13)
(1.038648 -0.037277613 5.5846331e-13)
(1.0140009 -0.056823966 3.0705963e-13)
(1.0325568 -0.048655806 -2.37152e-13)
(1.0298737 -0.050563222 -4.2957134e-13)
(1.024523 -0.058994509 4.5747104e-14)
(1.0273901 -0.056026117 2.4876387e-13)
(1.0214776 -0.062042853 -4.0786517e-14)
(1.030844 -0.054239686 3.3371577e-13)
(1.0358185 -0.046453141 0)
(1.0358591 -0.044241054 0)
(1.0376162 -0.042302746 2.114016e-13)
(1.0046183 -0.052221141 6.8485767e-13)
(1.0073498 -0.054532808 0)
(1.01019 -0.056898066 -3.5270637e-13)
(1.0344029 -0.020828789 -3.5243602e-13)
(1.0363108 -0.019141767 3.0630966e-13)
(1.033441 -0.01367087 0)
(1.0374399 -0.016679859 -3.3674334e-13)
(1.0357443 -0.023269292 -4.9664813e-13)
(1.0358282 -0.025068563 -1.3273297e-13)
(1.0296116 -0.0083394015 1.4124839e-21)
(1.0336836 -0.011806262 -1.7748746e-13)
(1.0226207 -0.0048074275 0)
(1.0163494 -0.0033398223 -6.6990689e-13)
(1.0075039 -0.00088547693 7.0029586e-13)
(1.0369637 -0.02731365 -6.4830142e-14)
(1.0390928 -0.032644986 -1.1568377e-13)
(1.0400432 -0.037187363 -9.7534244e-14)
(1.0378581 -0.030093159 1.1957957e-13)
(1.038471 -0.039821087 -1.9678167e-13)
(1.0171898 -0.061533505 6.9954412e-14)
(1.0369327 -0.050190413 0)
(1.0340733 -0.052221735 5.4697538e-13)
(1.0268826 -0.064097661 2.2862319e-13)
(1.0283099 -0.060135938 0)
(1.0319387 -0.058363181 -3.4885748e-13)
(1.0236188 -0.067441895 -4.3795404e-14)
(1.0353921 -0.056148361 -2.1354149e-13)
(1.0400371 -0.048890703 0)
(1.0405032 -0.046651968 0)
(1.0419429 -0.044666997 -4.6288822e-13)
(1.0028953 -0.053744235 -1.6034606e-13)
(1.0074337 -0.05680225 0)
(1.0133275 -0.060886701 8.4717957e-14)
(1.0358458 -0.020777275 1.8567019e-13)
(1.0377071 -0.018550402 3.6051789e-13)
(1.0377505 -0.014516077 0)
(1.0388871 -0.015778327 0)
(1.037087 -0.02289755 -6.8689395e-22)
(1.0387415 -0.02535222 -7.5029837e-22)
(1.0338576 -0.010267174 0)
(1.0289205 -0.0067398539 -1.8033801e-13)
(1.0377913 -0.012643155 0)
(1.0197957 -0.0032252774 1.0453406e-13)
(1.012324 -0.0012465613 1.1829922e-13)
(1.0399639 -0.027720127 0)
(1.0432245 -0.036150373 5.8263636e-14)
(1.0420723 -0.032261832 0)
(1.045124 -0.039099144 4.7493763e-13)
(1.0414092 -0.030207042 1.2696125e-13)
(1.0431042 -0.041651289 3.9883605e-13)
(1.0199065 -0.066588949 -4.6126149e-14)
(1.0412373 -0.051938118 -1.2104325e-13)
(1.0387999 -0.053960299 0)
(1.0317889 -0.066420426 -3.4233968e-13)
(1.0272979 -0.068273466 1.9704435e-13)
(1.0315978 -0.062324563 1.8523819e-13)
(1.0365581 -0.060559521 2.0292948e-13)
(1.0267081 -0.072687869 -4.0032382e-14)
(1.0404022 -0.057994665 -1.0565625e-13)
(1.0437234 -0.049857537 0)
(1.0419635 -0.046622211 0)
(1.0436168 -0.044013861 -6.9160335e-14)
(1.0039391 -0.058012321 0)
(1.0101139 -0.06060835 1.7396271e-13)
(1.0159155 -0.06579918 1.394246e-13)
(1.0388777 -0.020646429 0)
(1.0409862 -0.018837158 -1.026197e-13)
(1.0418267 -0.016088668 0)
(1.0403549 -0.02308586 -5.3909693e-13)
(1.0418704 -0.025658808 6.4046805e-14)
(1.0341558 -0.0088770762 1.9677454e-13)
(1.0371242 -0.010629469 0)
(1.0284698 -0.005756931 9.2010428e-14)
(1.0428435 -0.013771524 0)
(1.0110456 -0.00017234838 1.9597037e-13)
(1.0228327 -0.0042443153 0)
(1.0433294 -0.028228717 -1.2196089e-13)
(1.0469755 -0.038712557 6.0552748e-14)
(1.0454013 -0.035267521 0)
(1.0445036 -0.040833706 -2.7875981e-13)
(1.0447694 -0.030663223 -2.5986226e-13)
(1.0217254 -0.07181399 0)
(1.0435032 -0.055524481 -9.7308729e-22)
(1.0458128 -0.053063624 1.1994492e-13)
(1.0304019 -0.070153589 -1.8725091e-13)
(1.0373407 -0.070579646 2.1490646e-21)
(1.0371427 -0.064782277 1.8037165e-13)
(1.042099 -0.062771874 -9.9755363e-14)
(1.0292575 -0.078313212 -5.2236433e-14)
(1.0308321 -0.07339368 0)
(1.0452222 -0.05947445 2.4003162e-13)
(1.0477743 -0.050211469 -1.6708933e-14)
(1.0456363 -0.047001417 7.8619988e-14)
(1.0469185 -0.0440343 -8.2813322e-14)
(1.008526 -0.061719585 -1.4127416e-13)
(1.0138234 -0.065048625 9.8540484e-14)
(1.018883 -0.070440408 3.1771454e-13)
(1.0412466 -0.020539024 0)
(1.0433987 -0.019051124 0)
(1.0431789 -0.015400053 0)
(1.0433939 -0.02332659 3.7452124e-13)
(1.0451933 -0.02617562 -1.5799069e-13)
(1.0369613 -0.009160022 1.4205316e-13)
(1.0352606 -0.0075637296 -3.7891039e-13)
(1.0424137 -0.011937222 0)
(1.0289275 -0.0053866724 -3.4575577e-13)
(1.0461286 -0.014346277 0)
(1.0153271 -0.0022996838 -1.814054e-13)
(1.0225767 -0.0036243232 0)
(1.046728 -0.02862816 9.9392125e-14)
(1.0483237 -0.041651479 -8.6558592e-14)
(1.0505286 -0.038460486 2.2766552e-13)
(1.0492334 -0.036494522 -2.7540338e-13)
(1.046538 -0.032950914 5.7899864e-13)
(1.0486057 -0.031159542 2.5521607e-13)
(1.0243804 -0.076668366 -1.816383e-13)
(1.0487817 -0.057058203 -1.9342536e-21)
(1.0511417 -0.053966407 2.0599803e-13)
(1.0365976 -0.073733755 3.4579213e-13)
(1.0436171 -0.073354616 7.6604328e-14)
(1.0429004 -0.06749211 -1.8652861e-13)
(1.0475386 -0.064923132 -9.0799428e-14)
(1.0324265 -0.084423702 -1.9986084e-13)
(1.0339439 -0.079300258 1.0943816e-12)
(1.0354447 -0.077923744 -5.3271783e-13)
(1.0494756 -0.060430494 3.6475372e-13)
(1.0517466 -0.050198492 5.8666862e-14)
(1.0487871 -0.04702012 0)
(1.0493593 -0.043845231 3.3473003e-13)
(1.0118891 -0.066801001 0)
(1.0051811 -0.062871262 0)
(1.0163827 -0.071172733 -3.7275483e-13)
(1.0441462 -0.022729692 1.6850411e-13)
(1.0459135 -0.018239926 0)
(1.0453965 -0.020966965 -1.3819669e-14)
(1.0469658 -0.016082014 -2.9531466e-13)
(1.0478496 -0.025777781 2.335611e-13)
(1.0429931 -0.011621321 3.7703967e-15)
(1.0367748 -0.0076872432 6.0328012e-14)
(1.0303714 -0.0048825276 1.9273511e-13)
(1.0470299 -0.014046672 1.0364549e-13)
(1.0169452 -0.0017131076 -8.0659154e-13)
(1.0222279 -0.0022849053 3.607536e-21)
(1.0504154 -0.028814336 0)
(1.0523919 -0.042675167 2.3143149e-13)
(1.0539917 -0.039199312 0)
(1.0495562 -0.034182289 -1.3907755e-13)
(1.0531608 -0.033298263 -1.2000009e-13)
(1.0207347 -0.077419792 3.3875261e-13)
(1.0295533 -0.083130449 -5.3971273e-13)
(1.0547846 -0.058403366 -5.0494285e-13)
(1.056026 -0.05414969 1.6733782e-13)
(1.0445009 -0.080868391 -3.4566704e-13)
(1.0510273 -0.074934897 -8.6292959e-14)
(1.0479209 -0.079411849 1.809312e-13)
(1.0485324 -0.069661227 2.1156387e-13)
(1.0528596 -0.066775114 0)
(1.0360152 -0.090964484 -9.0435494e-14)
(1.0388981 -0.086467896 -1.0708426e-13)
(1.0419565 -0.081610557 3.6995965e-13)
(1.0547282 -0.064807586 -2.1882162e-13)
(1.0560197 -0.050021974 1.2886708e-13)
(1.0517083 -0.046717932 0)
(1.0526331 -0.04560698 -5.868071e-13)
(1.0120424 -0.068626576 0)
(1.0080397 -0.067846859 -3.12598e-13)
(1.0146568 -0.072186669 2.334398e-13)
(1.0475216 -0.024309178 -5.4802914e-13)
(1.048844 -0.018187124 3.479245e-13)
(1.0482869 -0.020473737 7.8607769e-14)
(1.0488453 -0.023160533 4.9026141e-13)
(1.0494516 -0.016043633 -6.5681814e-14)
(1.0501825 -0.025729554 3.7414215e-14)
(1.0443413 -0.010414887 -4.7856347e-15)
(1.0468013 -0.013263266 0)
(1.0401924 -0.0082462418 -1.3146747e-13)
(1.0345209 -0.0050080901 -1.3594381e-14)
(1.0269602 -0.0035099583 3.8967492e-13)
(1.0499153 -0.014043435 -3.8163493e-13)
(1.0213773 -0.00093803378 0)
(1.0535769 -0.028392332 -5.7566427e-14)
(1.0537351 -0.031520562 0)
(1.0565834 -0.045196659 -3.6998497e-13)
(1.0558643 -0.038006541 3.9704252e-14)
(1.0570271 -0.042685168 0)
(1.0522948 -0.034844304 -2.2853589e-13)
(1.0581774 -0.03680421 -4.6674483e-13)
(1.0256604 -0.084311063 -1.4812783e-13)
(1.0185964 -0.076319438 0)
(1.0608027 -0.060711712 2.2838588e-13)
(1.0568372 -0.062567384 5.0165955e-13)
(1.0619051 -0.057813169 4.211956e-13)
(1.0599937 -0.053495966 -6.2326779e-13)
(1.051216 -0.086646699 2.7428592e-13)
(1.0565958 -0.081218562 7.3278317e-14)
(1.057045 -0.076058613 -3.8008799e-14)
(1.0545046 -0.086713799 -1.1919882e-13)
(1.0546145 -0.0720899 0)
(1.0571182 -0.07192522 -1.205631e-14)
(1.0405602 -0.090785405 1.1735667e-15)
(1.04135 -0.097684645 -9.2714979e-22)
(1.0315086 -0.091838526 1.2795898e-13)
(1.0445121 -0.087543807 0)
(1.0610424 -0.070162023 1.0789304e-21)
(1.0577822 -0.049076658 3.2857911e-13)
(1.0127952 -0.073807711 -1.4935692e-13)
(1.0514254 -0.017977329 3.1332292e-13)
(1.0507769 -0.020239869 -1.2306094e-13)
(1.0500831 -0.022813766 0)
(1.0521055 -0.015805027 2.4895801e-13)
(1.051968 -0.02484894 9.2782234e-14)
(1.0479326 -0.012498496 0)
(1.047895 -0.0107237 1.2023755e-13)
(1.0440329 -0.0092057944 0)
(1.0398637 -0.0063355764 1.8793543e-13)
(1.034975 -0.0049191119 2.1774566e-14)
(1.0256582 -0.0012753011 -2.3464516e-13)
(1.0524106 -0.013977744 1.1731867e-13)
(1.0557087 -0.027067337 0)
(1.057708 -0.031088671 2.3177219e-13)
(1.0575212 -0.033292013 2.0213001e-13)
(1.0586344 -0.040295679 -1.3479902e-13)
(1.0226613 -0.084697437 0)
(1.017209 -0.080151663 2.6874832e-13)
(1.0608942 -0.065277735 -2.6577392e-13)
(1.0499162 -0.089586989 -2.8030499e-14)
(1.0625085 -0.082102975 2.4333834e-13)
(1.0608269 -0.08844966 3.9072693e-21)
(1.0625113 -0.075978241 1.7677677e-14)
(1.0545132 -0.091252691 -1.7260342e-13)
(1.0459797 -0.092316627 -7.2111826e-14)
(1.0451218 -0.096750628 1.8826018e-13)
(1.0398376 -0.10093263 1.1123931e-13)
(1.0464691 -0.10164596 -1.663469e-13)
(1.0257479 -0.091600111 -1.1735846e-13)
(1.0367523 -0.099702433 7.9586553e-13)
(1.0081196 -0.073760982 -2.8656021e-13)
(1.0540556 -0.017799017 -6.738088e-14)
(1.0533521 -0.019964303 -3.3649711e-13)
(1.0528806 -0.022315387 -6.6740104e-14)
(1.0548335 -0.015718193 0)
(1.0553612 -0.024210626 2.6891881e-13)
(1.0508472 -0.01241081 -1.1239626e-13)
(1.0504657 -0.010459986 -1.5635817e-13)
(1.0467539 -0.0097668591 0)
(1.0445786 -0.0076863996 0)
(1.0391193 -0.0049132713 9.2325449e-14)
(1.0337121 -0.0035209166 -1.275461e-13)
(1.022373 -0.00074433928 7.1995308e-13)
(1.0546123 -0.013752131 -2.2976103e-13)
(1.0589426 -0.029056898 -5.6306836e-13)
(1.0580681 -0.026359744 -4.3824438e-13)
(1.0162667 -0.082167601 0)
(1.0512039 -0.094670249 -1.1781503e-13)
(1.0668167 -0.081661197 -2.8444525e-13)
(1.0674045 -0.087148909 -2.3419507e-13)
(1.0628664 -0.093511326 -5.3245824e-13)
(1.0660893 -0.091298335 -1.3243489e-13)
(1.0599949 -0.096514002 3.7466674e-13)
(1.0479686 -0.097992381 1.6387497e-13)
(1.0382341 -0.10675432 1.3933336e-13)
(1.0448513 -0.10594246 -6.5072194e-14)
(1.0525727 -0.10619268 -2.5747535e-13)
(1.020041 -0.089270797 0)
(1.0305988 -0.09896732 0)
(1.033849 -0.10177572 0)
(1.0092227 -0.079877255 2.2576246e-13)
(1.0566112 -0.017710994 0)
(1.0559678 -0.019677156 -2.3767112e-13)
(1.0555497 -0.021860408 2.9441439e-14)
(1.0575084 -0.015749112 2.0061828e-13)
(1.0576103 -0.023902122 -5.095955e-13)
(1.0535372 -0.012252637 3.2756808e-13)
(1.0519362 -0.010034795 8.3098343e-14)
(1.0474358 -0.0093853123 2.092991e-13)
(1.0444324 -0.0063245028 1.7573002e-13)
(1.0474276 -0.0088321752 -3.4494759e-13)
(1.0389854 -0.003690986 -3.2376657e-13)
(1.0330508 -0.0023944915 -2.6714372e-13)
(1.025816 -0.0019791715 -7.7500073e-14)
(1.0562547 -0.013797579 0)
(1.0538294 -0.10183359 -1.508647e-14)
(1.0577414 -0.096777766 -1.0118073e-13)
(1.0684146 -0.099018283 0)
(1.0652233 -0.10198785 4.8802073e-13)
(1.0383384 -0.11295431 -8.5998616e-14)
(1.0437325 -0.11064938 -5.0929459e-14)
(1.0501886 -0.10952514 -4.1896884e-13)
(1.0590493 -0.11271124 2.6240262e-13)
(1.0116651 -0.085653514 -7.2112267e-14)
(1.022497 -0.096226754 1.7894424e-14)
(1.0280073 -0.10111181 -2.1884758e-14)
(1.0326446 -0.10782209 0)
(1.0579719 -0.019646981 6.1504965e-15)
(1.0584234 -0.017768128 0)
(1.0576189 -0.021703697 4.4585473e-13)
(1.0597376 -0.015919451 0)
(1.0557747 -0.012396149 -5.5306733e-13)
(1.0527218 -0.0089517445 -1.9161302e-13)
(1.0485191 -0.0087381328 1.469943e-13)
(1.0546278 -0.010931361 8.7661186e-13)
(1.0471575 -0.0070812469 4.6553569e-14)
(1.0449193 -0.0051796847 5.2803556e-13)
(1.0480098 -0.0081296617 5.5607384e-14)
(1.0344628 -0.0026546892 1.4815147e-21)
(1.0387858 -0.0032953935 2.8464869e-13)
(1.0283929 -0.0014126189 0)
(1.0596202 -0.014561519 0)
(1.06128 -0.10615124 1.1637094e-13)
(1.0672481 -0.10913015 -2.4257771e-13)
(1.0372647 -0.1191178 2.7408128e-13)
(1.0448253 -0.11823395 -3.6716957e-13)
(1.0484897 -0.11693559 0)
(1.0543073 -0.11627248 2.1319645e-13)
(1.0623759 -0.10950017 2.6793447e-13)
(1.0672064 -0.1177452 0)
(1.0178356 -0.092162072 4.3557099e-13)
(1.0224202 -0.10265882 -7.590666e-13)
(1.0261317 -0.10668957 -2.1094081e-13)
(1.0311547 -0.11265433 2.8894972e-13)
(1.058303 -0.012956675 0)
(1.0553159 -0.0084674945 2.0184391e-13)
(1.055634 -0.010740669 -3.4564152e-14)
(1.0499636 -0.0080191553 -5.6774143e-14)
(1.0479789 -0.0063095853 -2.3415914e-13)
(1.045946 -0.0054357989 -1.6242486e-13)
(1.0373997 -0.0021510715 -3.6866992e-14)
(1.0432851 -0.0045491857 0)
(1.0308479 -0.0018062569 -7.5429366e-15)
(1.0602256 -0.013517775 1.7817719e-13)
(1.0351579 -0.12707791 -2.1963264e-14)
(1.044085 -0.12604815 -8.9011373e-13)
(1.0478418 -0.12717731 5.7634623e-13)
(1.0549609 -0.12538505 -2.0409601e-21)
(1.0608187 -0.12329301 -3.7328805e-13)
(1.0668928 -0.12407289 -1.9814253e-13)
(1.0128565 -0.094077878 -1.1865796e-13)
(1.0183792 -0.10383656 1.6520944e-13)
(1.0231923 -0.11234458 -1.0154433e-13)
(1.0289648 -0.11925899 -1.8764653e-13)
(1.0594923 -0.011462901 -1.5251411e-13)
(1.0517792 -0.0075956253 1.3073417e-13)
(1.0568582 -0.0080180507 1.7764452e-13)
(1.0572306 -0.0098005193 -4.7066685e-13)
(1.0502929 -0.0062461304 1.2390154e-13)
(1.0485697 -0.0049082756 4.3128128e-13)
(1.0437171 -0.0037978387 2.4001512e-14)
(1.0382866 -0.0021654388 -7.4013268e-14)
(1.0318164 -0.001367907 1.2478837e-13)
(1.0426186 -0.13384901 2.0704513e-14)
(1.0303871 -0.13341014 -9.1488879e-14)
(1.0534324 -0.13505321 0)
(1.0593002 -0.13403168 4.9385217e-13)
(1.0659366 -0.13431188 -4.3773391e-13)
(1.0091143 -0.099765821 0)
(1.0156595 -0.10888105 1.6528583e-13)
(1.0193739 -0.11703302 -2.635595e-21)
(1.0246051 -0.12559245 0)
(1.0603022 -0.010968385 0)
(1.0530949 -0.0069568596 -1.1916961e-13)
(1.0600829 -0.0096782032 8.4038895e-14)
(1.0571904 -0.0069375011 -1.3556148e-13)
(1.0521536 -0.0059840183 -1.1411796e-13)
(1.0504996 -0.0048793032 2.6337042e-13)
(1.0474646 -0.0042936666 -4.5462282e-13)
(1.0440982 -0.003153882 -1.3839306e-13)
(1.0383702 -0.0016031303 -3.665645e-13)
(1.0332887 -0.0014018349 -9.8390924e-14)
(1.0410737 -0.14320972 -1.8820633e-13)
(1.0502636 -0.13818086 0)
(1.0252155 -0.13997883 1.4679957e-13)
(1.0353534 -0.14417953 0)
(1.0580224 -0.14247744 -1.556739e-13)
(1.0629503 -0.14132724 0)
(1.0057964 -0.10577831 0)
(1.012406 -0.11413853 -2.8197885e-13)
(1.0153316 -0.12402679 7.8940651e-14)
(1.0191212 -0.13088034 4.0698016e-14)
(1.060498 -0.008036989 4.2027295e-13)
(1.0601973 -0.0069901432 8.0067467e-22)
(1.057474 -0.0055794707 -1.8542799e-13)
(1.0536222 -0.0057524134 0)
(1.0526203 -0.0047029991 -9.763714e-14)
(1.0481152 -0.0039527039 -1.457552e-22)
(1.0448804 -0.0025887068 1.6589634e-13)
(1.0427441 -0.0018311346 5.7264518e-13)
(1.0352541 -0.00054961152 -1.7001323e-13)
(1.0454222 -0.14940668 3.4317339e-13)
(1.0518862 -0.14543718 -1.3867961e-13)
(1.0295196 -0.14679869 0)
(1.0137083 -0.1461024 -1.6175432e-13)
(1.036778 -0.15511083 0)
(1.0612197 -0.14940127 0)
(0.99847352 -0.11256081 -5.1060582e-14)
(1.0039372 -0.11998686 1.4492293e-13)
(1.0064498 -0.1259377 2.96456e-13)
(1.0090965 -0.13882698 -9.3298387e-14)
(1.0601244 -0.005631399 1.1218069e-13)
(1.0583296 -0.0045315349 -7.8901827e-14)
(1.054346 -0.0045266576 -7.2341699e-14)
(1.0500072 -0.0037586528 1.1027028e-13)
(1.0482884 -0.0032245515 -2.6390195e-13)
(1.0475917 -0.002302232 -2.834531e-13)
(1.0404093 -0.001097471 -2.8100689e-13)
(1.0338476 -0.00073166162 5.7327134e-13)
(1.0455416 -0.16025533 0)
(1.05408 -0.15409507 0)
(1.0262447 -0.1559905 0)
(1.0096906 -0.15490673 0)
(1.0355367 -0.16669917 3.746844e-13)
(0.98569762 -0.11975155 1.3694828e-14)
(0.99592731 -0.12347388 -4.4144396e-13)
(0.99916216 -0.13465679 -1.4790188e-13)
(0.99097951 -0.14632979 6.2213696e-13)
(1.0600912 -0.0045511989 -3.5182491e-13)
(1.0555742 -0.0038241872 -1.3378134e-13)
(1.0594985 -0.0034870873 2.9541232e-13)
(1.0519145 -0.0035816127 8.3755315e-22)
(1.0493982 -0.0031103684 0)
(1.0469073 -0.001545892 1.0618297e-13)
(1.0494628 -0.0028252573 3.1075783e-13)
(1.0385098 -0.00083979997 4.9058519e-14)
(1.0361548 -0.0016035648 3.4910189e-13)
(1.0242366 -0.1664289 -1.7116556e-13)
(0.99665152 -0.16634386 2.0710168e-13)
(0.98809643 -0.15159878 -1.5064886e-13)
(0.96394245 -0.13034311 -2.8956138e-13)
(0.98839761 -0.13154066 2.6722033e-13)
(0.98111065 -0.14194068 0)
(1.0563978 -0.0029823242 1.1475118e-13)
(1.0528359 -0.0032114038 0)
(1.0601724 -0.0031090373 4.9757358e-14)
(1.0490793 -0.0021032097 -6.0073929e-14)
(1.0466282 -0.0010026736 8.5183874e-14)
(1.0372422 -0.00012056065 -2.9998558e-13)
(1.0039138 -0.17613185 -4.3436732e-13)
(0.9712616 -0.16282285 -5.9969026e-13)
(0.97127526 -0.17366836 -6.3179315e-13)
(0.95675851 -0.1561625 -6.0739791e-13)
(0.93172607 -0.13643169 2.3083034e-13)
(0.96444553 -0.1395513 -2.5026122e-13)
(0.94753946 -0.15037258 -2.4196512e-13)
(1.0574515 -0.0021339003 -6.0173417e-14)
(1.0545565 -0.002621275 0)
(1.0528318 -0.0025849675 -6.465109e-14)
(1.0601006 -0.0020460185 5.9707194e-14)
(1.0489164 -0.0012679871 0)
(1.0471752 -0.0010481734 -4.8461721e-13)
(1.0345893 0.0001906435 0)
(1.0435986 -0.00046544424 3.1777521e-13)
(0.95150934 -0.168454 5.1888867e-13)
(0.92879731 -0.16406531 5.444771e-13)
(0.94221608 -0.16846318 3.5732087e-13)
(0.91775908 -0.15772781 -1.4122161e-13)
(0.89037938 -0.13882239 -5.068721e-13)
(0.92518737 -0.14772188 3.429808e-13)
(1.0546448 -0.0019494824 -1.4572836e-13)
(1.0576897 -0.001424259 0)
(1.0521854 -0.001496984 0)
(1.0598747 -0.0010891029 -9.4483155e-14)
(1.0506771 -0.00048181127 2.0700169e-13)
(1.0347407 -0.00058416005 0)
(1.0418497 -3.2136787e-05 2.9324561e-13)
(1.047821 2.2414216e-05 0)
(0.90454672 -0.16427637 0)
(0.93653528 -0.1676404 1.3865047e-13)
(0.88469621 -0.16183023 -3.8492985e-13)
(0.90093322 -0.16506618 0)
(0.88666233 -0.15164292 -3.259488e-13)
(0.86405802 -0.14118278 5.4373014e-13)
(1.0542762 -0.0011050287 1.3049856e-13)
(1.0581756 -0.00050502327 -1.9621546e-14)
(1.0559675 -0.0011539967 0)
(1.0521328 -0.00098018407 0)
(1.0595033 -5.1581696e-05 2.9946629e-14)
(1.0523181 -4.1207437e-06 0)
(1.0366857 4.7858529e-05 4.1934799e-13)
(1.042588 -0.00011726967 -8.6663178e-13)
(1.0481941 0.00046627585 1.8316815e-13)
(0.87122138 -0.16193675 6.6638187e-14)
(0.84197937 -0.15881953 6.7260713e-13)
(0.81953743 -0.15517174 -5.9695394e-13)
(0.85025432 -0.15234484 1.1452106e-12)
(0.84308581 -0.15970805 2.3539477e-13)
(0.80900517 -0.14130487 0)
(0.83330264 -0.13461501 -6.1160394e-13)
(1.053694 -0.00035780803 0)
(1.0558209 -0.00045131196 3.9170909e-14)
(1.057745 0.00041988339 2.1981079e-13)
(1.0591781 0.0011336811 7.0953216e-15)
(1.0539848 0.00040458241 -3.49109e-13)
(1.0338689 0.00066259245 0)
(1.041882 0.00076137859 2.3150644e-13)
(1.0465023 0.00033287096 9.2255555e-14)
(1.0508609 0.00064864925 -3.272412e-13)
(0.81115248 -0.15511388 0)
(0.74450431 -0.13569473 2.6060097e-13)
(0.81350011 -0.15370039 -2.9762397e-20)
(0.80646289 -0.14514235 -3.6903384e-13)
(0.777783 -0.15495357 -2.7946088e-13)
(0.7943867 -0.13022433 4.1213487e-13)
(1.0555516 2.9343111e-05 4.2566559e-13)
(1.0575089 0.0012271929 0)
(1.0587801 0.0018023812 0)
(1.0551501 0.0012426562 -8.7015686e-14)
(1.0415534 0.00089842327 9.2525616e-14)
(1.033699 -2.1751208e-05 1.4151158e-13)
(1.046847 0.00050591735 0)
(1.0521843 0.0013376263 -2.9276743e-21)
(0.74727787 -0.14009485 -7.1226109e-14)
(0.69750703 -0.12040439 1.2566538e-20)
(0.72508315 -0.13189294 -2.6594082e-13)
(0.7625027 -0.14146593 3.0317563e-13)
(0.78334506 -0.13341136 6.660221e-13)
(0.70397503 -0.13048537 -1.3694308e-13)
(0.69255093 -0.12411055 -3.5331605e-14)
(0.80313101 -0.11853851 0)
(1.0577544 0.0024664297 1.0667511e-13)
(1.0588379 0.0025193265 3.4172577e-14)
(1.0556507 0.0021243424 1.9062922e-13)
(1.0412513 0.00077703314 0)
(1.033871 -6.2041043e-06 -1.5302641e-13)
(1.0468735 0.001300554 0)
(1.0505017 0.0012496248 9.0774098e-13)
(1.0539129 0.0024052814 -2.374026e-13)
(0.69068206 -0.12394789 -3.7499399e-13)
(0.69717512 -0.10701061 -1.1224095e-13)
(0.67598712 -0.091803062 2.3864706e-13)
(0.74254892 -0.12316117 5.617219e-14)