/*--------------------------------*- C++ -*----------------------------------*\
  =========                 |
  \\      /  F ield         | OpenFOAM: The Open Source CFD Toolbox
   \\    /   O peration     | Website:  https://openfoam.org
    \\  /    A nd           | Version:  7
     \\/     M anipulation  |
\*---------------------------------------------------------------------------*/
FoamFile
{
    version     2.0;
    format      ascii;
    class       surfaceVectorField;
    location    "20";
    object      rhoUf;
}
// * * * * * * * * * * * * * * * * * * * * * * * * * * * * * * * * * * * * * //

dimensions      [1 -2 -1 0 0 0 0];

internalField   nonuniform List<vector> 
4233
(
(1.17579 4.45997e-15 0.000875875)
(1.1726 -9.62978e-16 0.00251504)
(1.174 8.10043e-14 0.00414551)
(1.16896 -4.61392e-15 0.00415309)
(1.16902 -5.40117e-14 0.00830386)
(1.17271 1.1906e-13 0.00907627)
(1.17433 5.94855e-16 0.00557835)
(1.16452 0 0.0045929)
(1.169 -2.65304e-15 0.0120588)
(1.16513 -7.24752e-15 0.0143027)
(1.16939 5.35591e-14 0.0158336)
(1.17426 -7.72579e-14 0.00794551)
(1.15957 2.97156e-15 0.00484564)
(1.15954 -2.89772e-14 0.0233746)
(1.15928 -1.79216e-14 0.0178346)
(1.16515 8.02006e-14 0.0254919)
(1.16915 -3.22705e-15 0.0210213)
(1.17288 -9.46256e-15 0.0154179)
(1.17403 -1.16104e-15 0.00927555)
(1.15568 -5.20268e-14 0.0121261)
(1.15118 6.22196e-14 0.00448062)
(1.15935 -2.43559e-15 0.0303244)
(1.15308 -7.33773e-14 0.0349639)
(1.15239 -5.14866e-14 0.0211576)
(1.16016 7.5237e-14 0.0376011)
(1.16997 -4.86906e-16 0.0249472)
(1.17424 -7.28948e-14 0.0118955)
(1.14572 -6.82962e-15 0.00545947)
(1.14706 -5.38021e-14 0.0478437)
(1.14556 4.54621e-15 0.0389997)
(1.14577 6.55308e-15 0.0306819)
(1.14545 -2.20616e-22 0.0237388)
(1.16041 0 0.0446558)
(1.15499 2.0263e-14 0.0513328)
(1.16626 8.53806e-15 0.0371454)
(1.17016 6.72106e-15 0.0292787)
(1.17369 -7.23027e-14 0.0213565)
(1.17436 4.07466e-15 0.0123936)
(1.14091 -5.8973e-14 0.0153645)
(1.13543 -5.77504e-14 0.00503564)
(1.1479 -3.56958e-14 0.0570009)
(1.14047 1.45069e-14 0.0621508)
(1.13787 6.29677e-15 0.0427833)
(1.13624 -7.94462e-15 0.0267655)
(1.16276 0 0.0508229)
(1.14989 7.33498e-14 0.0656706)
(1.17128 8.62276e-14 0.032815)
(1.17398 1.50098e-13 0.0147476)
(1.12953 0 0.00586238)
(1.13246 -1.10873e-14 0.0663474)
(1.13511 5.58774e-14 0.0767175)
(1.1312 -6.08307e-14 0.0562747)
(1.12921 8.63633e-15 0.0463374)
(1.12858 8.63067e-16 0.0373083)
(1.12774 -7.20887e-15 0.0289995)
(1.15912 -2.92022e-14 0.0657429)
(1.16436 -2.76949e-15 0.0551554)
(1.15168 2.33596e-14 0.0745378)
(1.14511 5.08622e-14 0.0823851)
(1.1685 8.09625e-14 0.045687)
(1.17169 7.19893e-15 0.0354831)
(1.17407 -9.85672e-15 0.0254077)
(1.17413 -3.43297e-15 0.014603)
(1.12355 0 0.0176822)
(1.11843 0 0.00629698)
(1.12373 -1.2361e-13 0.0707743)
(1.1374 0 0.0871564)
(1.12883 0 0.0915655)
(1.11978 1.2117e-14 0.0503269)
(1.11672 0 0.0323379)
(1.15598 -3.89773e-14 0.0810597)
(1.16605 -4.47968e-14 0.0586521)
(1.14091 0 0.0971678)
(1.17255 -8.40799e-14 0.0377888)
(1.17332 8.65244e-15 0.0172551)
(1.1074 0 0.010063)
(1.10647 1.12075e-15 0.0214579)
(1.1145 3.61162e-15 0.0763695)
(1.11761 -6.0692e-14 0.0873587)
(1.12015 0 0.0972878)
(1.12253 4.33482e-14 0.108164)
(1.1119 6.74001e-14 0.0662155)
(1.10855 2.80784e-15 0.0551459)
(1.10619 1.13523e-15 0.0339331)
(1.10754 -1.06161e-15 0.0445312)
(1.15383 -8.43416e-15 0.0965149)
(1.15898 -1.99581e-14 0.0846625)
(1.16199 -5.18817e-14 0.0725009)
(1.16736 -1.8238e-15 0.0603007)
(1.1313 -2.36723e-14 0.110777)
(1.14117 0 0.107478)
(1.17057 4.78065e-14 0.050388)
(1.17304 -4.34578e-22 0.0401005)
(1.17268 7.92183e-14 0.0304958)
(1.17339 -1.28825e-15 0.0175579)
(1.09661 -1.18362e-15 0.0128931)
(1.09384 7.38835e-14 0.0365562)
(1.10416 7.96279e-14 0.0828188)
(1.11123 -1.82765e-14 0.103984)
(1.12518 1.40369e-14 0.11629)
(1.11714 3.3428e-14 0.12426)
(1.09813 -9.22995e-15 0.059346)
(1.14779 0 0.109589)
(1.1526 -5.26206e-14 0.113476)
(1.16304 -1.05162e-14 0.0850952)
(1.16968 4.07135e-14 0.062795)
(1.12907 -4.75426e-14 0.123947)
(1.14313 -4.93778e-14 0.121704)
(1.17563 -6.91398e-15 0.039506)
(1.17411 -1.49337e-13 0.0210152)
(1.08519 -3.50756e-15 0.014405)
(1.08302 -7.76149e-14 0.0257429)
(1.08118 -6.62019e-15 0.038681)
(1.08391 6.87532e-14 0.0515759)
(1.09699 -1.06881e-15 0.0989049)
(1.09277 2.75257e-14 0.0876457)
(1.10083 -3.65905e-14 0.109967)
(1.10477 2.21888e-15 0.121304)
(1.10764 1.48267e-14 0.131712)
(1.1122 -4.76567e-15 0.141375)
(1.08616 -8.2793e-15 0.0633022)
(1.08963 2.29063e-15 0.0757761)
(1.15273 -4.4444e-14 0.130782)
(1.15736 1.53184e-14 0.117053)
(1.16857 0 0.0779677)
(1.16483 -6.34592e-15 0.0915533)
(1.17096 0 0.0676467)
(1.13392 -6.45885e-14 0.129171)
(1.12617 -3.13658e-14 0.138592)
(1.13983 -9.28525e-15 0.134031)
(1.17758 -7.00087e-14 0.0344008)
(1.17491 -1.59654e-14 0.0435762)
(1.17711 8.26668e-15 0.0213762)
(1.0702 2.77094e-16 0.0163077)
(1.06766 -7.82892e-14 0.0412423)
(1.0738 1.0355e-14 0.0673989)
(1.08949 -1.81266e-14 0.116491)
(1.08068 1.95405e-14 0.0928525)
(1.09797 1.81572e-14 0.139211)
(1.11748 0 0.151279)
(1.10842 0 0.160682)
(1.14448 4.35454e-14 0.141883)
(1.15118 -1.27949e-15 0.146217)
(1.16225 5.33439e-14 0.1065)
(1.16157 2.14039e-14 0.122636)
(1.16727 -4.98504e-14 0.0965364)
(1.17471 -9.11863e-15 0.0571686)
(1.17272 0 0.0721295)
(1.12684 0 0.156087)
(1.13583 3.70606e-14 0.151843)
(1.17335 -4.08179e-14 0.0450868)
(1.17675 7.32368e-14 0.0208841)
(1.05507 1.07771e-15 0.0293064)
(1.05788 2.41564e-15 0.0165552)
(1.05304 -6.6515e-15 0.0434761)
(1.05659 2.22796e-16 0.0579908)
(1.05973 1.59597e-14 0.0716061)
(1.06396 -2.86497e-16 0.0850767)
(1.08296 -2.50857e-15 0.13435)
(1.07753 -1.12897e-14 0.122692)
(1.06754 -1.40796e-15 0.0981835)
(1.07283 -1.8199e-15 0.110879)
(1.08759 -2.44221e-15 0.146052)
(1.09312 0 0.157297)
(1.09839 0 0.167851)
(1.10328 2.50794e-14 0.179668)
(1.14867 9.53285e-15 0.165343)
(1.15665 -8.30705e-15 0.15184)
(1.16348 -4.79264e-14 0.137978)
(1.16575 3.68638e-14 0.123248)
(1.17201 -4.61947e-14 0.0855256)
(1.17008 2.55065e-14 0.0995156)
(1.17186 -1.307e-15 0.0730808)
(1.12757 -8.78514e-15 0.165363)
(1.17299 -3.21324e-14 0.0329049)
(1.17174 1.455e-14 0.0462076)
(1.17603 0 0.0214737)
(1.03854 -2.6252e-15 0.0455304)
(1.04042 1.38153e-15 0.0186234)
(1.04532 5.26285e-15 0.0758452)
(1.05345 -1.03064e-14 0.104091)
(1.07573 6.18824e-17 0.153867)
(1.06432 -1.06018e-14 0.129937)
(1.08705 5.04031e-14 0.177766)
(1.09596 -5.93293e-14 0.19653)
(1.10827 1.01262e-14 0.191032)
(1.13486 1.91178e-15 0.177856)
(1.14502 2.95489e-14 0.18454)
(1.1627 1.87844e-14 0.154138)
(1.16654 1.20939e-13 0.11426)
(1.16682 7.23575e-14 0.123668)
(1.17169 6.28471e-14 0.102246)
(1.17158 4.21474e-14 0.0601044)
(1.17119 -1.31676e-15 0.0737011)
(1.12324 -3.92842e-14 0.186935)
(1.17409 -7.3233e-14 0.0245167)
(1.17618 -3.25442e-14 0.0471107)
(1.02552 1.43767e-15 0.0652281)
(1.02134 -2.70434e-15 0.0486346)
(1.02353 -5.33013e-17 0.0329195)
(1.02632 1.33023e-15 0.0189228)
(1.02953 2.67573e-15 0.0806666)
(1.03414 0 0.0961359)
(1.03839 1.68143e-16 0.110875)
(1.04436 5.09225e-16 0.125508)
(1.06312 2.11408e-15 0.164333)
(1.07057 -4.09835e-14 0.177474)
(1.05013 5.09333e-16 0.138965)
(1.05685 -1.59671e-16 0.152509)
(1.08791 -3.23822e-14 0.196546)
(1.07865 1.28406e-14 0.188423)
(1.08699 -5.74978e-14 0.208956)
(1.12036 1.99833e-14 0.203514)
(1.15285 -1.3611e-14 0.188225)
(1.14314 -3.26487e-14 0.20273)
(1.16105 -6.23117e-15 0.1737)
(1.16604 -5.00278e-14 0.158321)
(1.16849 2.65759e-14 0.127848)
(1.17063 4.9141e-15 0.11535)
(1.17242 0 0.0887353)
(1.17344 -3.08669e-15 0.102058)
(1.17405 -7.87663e-14 0.0734731)
(1.17791 -1.53249e-13 0.0318226)
(1.17307 3.78421e-18 0.0196711)
(1.1796 4.33458e-15 0.0456223)
(1.01299 2.556e-15 0.0857953)
(1.00519 1.08403e-14 0.0512592)
(1.00686 0 0.0211933)
(1.0234 2.52686e-14 0.117961)
(1.0363 -2.51101e-14 0.148507)
(1.051 6.04002e-17 0.176061)
(1.0674 -1.80338e-14 0.201055)
(1.07947 6.42054e-15 0.227715)
(1.09525 3.80425e-14 0.224728)
(1.11033 3.87769e-14 0.220726)
(1.12237 4.05265e-14 0.216812)
(1.16109 -4.02822e-14 0.192412)
(1.13365 -2.8703e-14 0.218853)
(1.14408 4.27424e-14 0.222824)
(1.17002 -5.06401e-14 0.144548)
(1.17108 -2.94139e-14 0.162275)
(1.17615 2.05762e-14 0.131866)
(1.17416 -4.80111e-14 0.106334)
(1.17747 9.65338e-16 0.0604807)
(1.17745 1.26183e-14 0.0739799)
(1.17336 6.58141e-18 0.0232267)
(1.18057 8.38062e-14 0.0481964)
(0.995747 -1.29151e-14 0.0880127)
(1.0015 0 0.104806)
(0.991491 -1.66644e-15 0.0708028)
(0.987322 1.12109e-14 0.0530182)
(0.989075 0 0.0362756)
(0.991945 0 0.0206185)
(1.0069 2.33769e-14 0.121162)
(1.01357 -1.48409e-15 0.137059)
(1.02008 -4.91173e-14 0.153318)
(1.02803 2.93951e-15 0.168269)
(1.03547 2.70494e-14 0.182658)
(1.04461 -4.94882e-14 0.195561)
(1.05307 -2.91658e-14 0.208908)
(1.06167 7.19841e-14 0.220532)
(1.06708 2.93051e-14 0.231563)
(1.07326 -2.32131e-14 0.249499)
(1.1027 5.50589e-15 0.238367)
(1.12653 -1.64624e-15 0.237176)
(1.16148 -1.20745e-14 0.210519)
(1.16744 -4.7269e-14 0.194648)
(1.15239 7.50923e-14 0.225061)
(1.14346 1.03663e-13 0.240976)
(1.17348 1.1406e-15 0.178325)
(1.17798 5.07974e-14 0.162361)
(1.18013 -4.59051e-14 0.116914)
(1.18245 -2.37333e-14 0.13093)
(1.17662 -8.83117e-15 0.102362)
(1.17579 1.30462e-13 0.0894251)
(1.17903 1.43508e-15 0.074985)
(1.17876 -7.09342e-14 0.0354846)
(1.17522 6.51516e-18 0.0196938)
(1.17996 -4.9908e-18 0.046888)
(0.977257 3.34261e-14 0.0904299)
(0.988909 3.97796e-14 0.125104)
(0.969763 -5.22702e-14 0.0546143)
(0.969885 0 0.023115)
(1.0028 -7.61425e-14 0.15819)
(1.01889 1.06659e-13 0.189419)
(1.03671 -1.00164e-13 0.216951)
(1.05262 1.17681e-13 0.241831)
(1.07984 0 0.266457)
(1.0624 -1.45539e-14 0.268191)
(1.11278 -5.41156e-15 0.248915)
(1.09949 0 0.257556)
(1.12348 -6.35423e-15 0.252673)
(1.16275 0 0.227372)
(1.17519 2.28376e-14 0.195633)
(1.13344 3.53804e-14 0.257977)
(1.14466 8.8062e-15 0.25981)
(1.18337 -8.66217e-15 0.147035)
(1.18539 7.74174e-15 0.162264)
(1.18422 -1.44558e-14 0.13113)
(1.17886 -3.7142e-14 0.100626)
(1.17977 -9.04025e-14 0.0611333)
(1.1806 -1.30887e-14 0.0741969)
(1.17319 7.26796e-14 0.0210907)
(1.18023 -2.29814e-19 0.0471355)
(0.964051 -4.47411e-15 0.113031)
(0.958203 -1.97633e-14 0.0948279)
(0.97012 -9.56755e-15 0.130741)
(0.977862 1.08482e-13 0.148269)
(0.954486 -1.11517e-13 0.0769858)
(0.950012 5.78095e-15 0.0576716)
(0.951061 5.66034e-14 0.0396202)
(0.953072 1.76458e-15 0.0231513)
(0.985216 2.17023e-14 0.164638)
(0.99382 -1.06998e-13 0.181556)
(1.00218 2.08114e-14 0.196662)
(1.0117 1.06562e-13 0.211574)
(1.02075 -2.43317e-14 0.226034)
(1.03046 -1.05385e-13 0.240376)
(1.05214 6.02992e-14 0.262629)
(1.04039 2.29817e-14 0.25254)
(1.08807 4.5921e-15 0.280807)
(1.05298 -4.95058e-15 0.283336)
(1.12303 2.84289e-14 0.277563)
(1.16407 0 0.245799)
(1.17089 3.42364e-15 0.228775)
(1.17763 5.54087e-14 0.212392)
(1.18301 9.98991e-14 0.194625)
(1.15529 -3.12751e-14 0.26322)
(1.14543 -2.71697e-14 0.280158)
(1.18824 4.06517e-14 0.17789)
(1.18919 -4.43828e-16 0.16057)
(1.18472 8.46544e-14 0.116897)
(1.18673 1.22043e-14 0.130249)
(1.18321 -4.68441e-16 0.0896951)
(1.18167 -2.01582e-14 0.102851)
(1.18057 8.30181e-14 0.0724444)
(1.17703 4.931e-18 0.0331637)
(1.17444 0 0.0183152)
(1.17916 1.09394e-15 0.0447297)
(0.950613 -4.08365e-14 0.137345)
(0.939079 -5.97737e-14 0.0997924)
(0.966854 1.24317e-13 0.17245)
(0.930811 1.16217e-13 0.0601659)
(0.92897 -6.9849e-15 0.0260546)
(0.984742 -1.12334e-13 0.205543)
(1.00497 7.98045e-14 0.236405)
(1.02595 -8.16675e-14 0.265095)
(1.10344 3.22172e-14 0.291642)
(1.08224 -3.02464e-14 0.302866)
(1.05084 1.09775e-14 0.309454)
(1.0346 4.31857e-14 0.301348)
(1.12208 -2.63957e-14 0.297837)
(1.1668 0 0.265953)
(1.18 3.29678e-15 0.228507)
(1.19141 -1.64296e-14 0.193208)
(1.15133 -5.07135e-16 0.30157)
(1.14103 1.26517e-14 0.300649)
(1.19019 6.1885e-15 0.143934)
(1.19386 5.71827e-15 0.158133)
(1.18394 7.1342e-14 0.100282)
(1.1892 0 0.127666)
(1.17893 2.3294e-15 0.0581846)
(1.18071 -1.1031e-15 0.0706947)
(1.17504 7.26132e-14 0.0205177)
(1.18122 -7.3491e-14 0.0453168)
(0.937923 -5.96417e-14 0.163019)
(0.929173 6.81222e-15 0.143892)
(0.92351 2.25257e-16 0.123972)
(0.917528 0 0.103937)
(0.946756 -9.74304e-15 0.180338)
(0.956319 1.12309e-13 0.198278)
(0.913616 6.02496e-14 0.0833119)
(0.909314 1.14868e-14 0.0620379)
(0.909223 -6.06186e-14 0.0425717)
(0.911081 -8.1257e-15 0.0251519)
(0.965672 -6.9422e-16 0.215484)
(0.976939 -1.12781e-13 0.232451)
(0.987824 -5.70356e-15 0.247727)
(0.99945 5.01198e-14 0.263911)
(1.02292 2.02952e-15 0.289837)
(1.01048 -2.76784e-14 0.276652)
(1.06548 -3.10069e-14 0.316956)
(1.07987 -5.01718e-15 0.328749)
(1.04954 -2.81823e-14 0.336469)
(1.02071 9.13642e-14 0.315814)
(1.13038 -3.2607e-14 0.304709)
(1.11784 -7.52708e-15 0.319873)
(1.16951 0 0.284096)
(1.17543 0 0.265486)
(1.18251 0 0.246179)
(1.1885 -5.94458e-14 0.227574)
(1.19457 -1.17675e-13 0.209782)
(1.19621 -5.83474e-14 0.191261)
(1.16151 0 0.30315)
(1.15821 4.92688e-14 0.323621)
(1.13936 4.68959e-15 0.323995)
(1.19757 0 0.173341)
(1.19724 2.89011e-15 0.155584)
(1.1829 1.30494e-16 0.0840089)
(1.18594 2.28477e-15 0.0978257)
(1.18871 0 0.111536)
(1.19226 -2.89507e-15 0.124673)
(1.18304 -4.79762e-15 0.0690755)
(1.17987 -1.60724e-15 0.0321781)
(1.17807 -6.68313e-17 0.0188239)
(1.18255 5.76782e-15 0.0427481)
(0.925874 -2.7113e-14 0.189302)
(0.907903 8.81687e-14 0.150421)
(0.896555 -1.79475e-14 0.10752)
(0.946449 5.42785e-14 0.226236)
(0.888286 -4.79125e-14 0.0625507)
(0.883995 0 0.025702)
(0.970535 -5.49636e-14 0.260871)
(0.994763 0 0.290302)
(1.09882 5.91505e-14 0.336387)
(1.07945 2.20108e-14 0.352718)
(1.04849 3.86731e-15 0.36167)
(1.03159 -5.7593e-14 0.35266)
(1.01805 2.97527e-14 0.341229)
(1.00333 3.07164e-14 0.328298)
(1.12004 2.22935e-14 0.344604)
(1.174 0 0.304051)
(1.18586 2.03903e-14 0.264581)
(1.19752 -5.43587e-15 0.225894)
(1.20168 -6.52515e-15 0.188261)
(1.14878 4.51371e-14 0.339487)
(1.15773 -1.60358e-15 0.344234)
(1.14007 -6.39196e-15 0.344267)
(1.19684 3.40673e-16 0.138452)
(1.20114 3.0375e-15 0.15172)
(1.18945 0 0.0957115)
(1.19576 -4.95564e-14 0.12072)
(1.18376 7.38628e-14 0.0553298)
(1.18602 -2.46137e-15 0.067303)
(1.17673 -7.32367e-14 0.0173761)
(1.18052 7.89849e-14 0.0419456)
(0.90332 -2.47804e-14 0.194756)
(0.914082 3.17663e-14 0.214082)
(0.894853 2.55389e-14 0.174278)
(0.886791 2.71169e-14 0.152974)
(0.881405 -6.91326e-14 0.130371)
(0.876314 -1.6469e-14 0.108751)
(0.924383 -4.40573e-16 0.233431)
(0.936734 -4.50321e-16 0.25198)
(0.871484 0 0.0876151)
(0.86642 -3.03866e-15 0.0656495)
(0.861016 3.04384e-15 0.0223249)
(0.949179 0 0.269807)
(0.962906 0 0.286557)
(0.989787 -2.9555e-14 0.315299)
(0.975649 0 0.301522)
(1.06375 2.94363e-14 0.368583)
(1.0804 3.0682e-14 0.376345)
(1.04811 -5.65566e-15 0.388454)
(1.01641 -6.34898e-14 0.368879)
(0.985265 -3.09948e-14 0.342798)
(1.12931 -8.03964e-15 0.350124)
(1.11695 -6.84241e-14 0.365497)
(1.17998 9.33193e-15 0.327729)
(1.1845 -6.39007e-15 0.30537)
(1.19102 1.37548e-14 0.28419)
(1.19688 -4.40084e-14 0.263547)
(1.20313 -6.69888e-15 0.2437)
(1.2048 5.64954e-14 0.222883)
(1.20676 -1.34801e-14 0.203502)
(1.20621 4.26595e-14 0.184508)
(1.17053 -5.87813e-14 0.350026)
(1.16233 -5.79811e-14 0.369951)
(1.14283 0 0.366014)
(1.20575 5.22046e-14 0.165863)
(1.20503 5.29896e-15 0.148167)
(1.18981 0 0.0803145)
(1.1935 5.29854e-15 0.092707)
(1.19513 -4.37818e-14 0.104837)
(1.19949 -8.45971e-15 0.117788)
(1.18405 -7.31786e-14 0.0643105)
(1.17578 0 0.0182162)
(1.17695 0 0.0295911)
(1.17877 -2.87933e-16 0.0401036)
(0.881703 -1.59356e-14 0.200255)
(0.901723 0 0.241611)
(0.865197 1.7964e-14 0.15596)
(0.853165 0 0.111704)
(0.926793 -3.22492e-14 0.279945)
(0.846311 5.71033e-17 0.0449707)
(0.835729 -1.25033e-14 0.0694546)
(0.828881 2.86207e-15 0.0192277)
(0.955242 -3.26125e-14 0.313978)
(1.10169 -3.86979e-14 0.382626)
(1.08387 -3.36388e-14 0.401246)
(1.04876 3.90068e-15 0.414377)
(1.03058 1.51419e-14 0.406312)
(1.01525 1.16929e-14 0.396038)
(0.997918 1.63945e-15 0.383114)
(0.981578 3.1671e-14 0.370409)
(0.96432 -2.02859e-15 0.356161)
(1.12382 -4.27943e-14 0.387913)
(1.18589 -1.50527e-15 0.35015)
(1.19809 -6.99742e-15 0.303521)
(1.20932 -1.51484e-14 0.261088)
(1.213 -7.42498e-15 0.218932)
(1.21146 1.27519e-14 0.179756)
(1.15382 0 0.381942)
(1.16023 0 0.389445)
(1.13994 2.48346e-14 0.386181)
(1.20441 4.50687e-14 0.130959)
(1.20946 1.03583e-14 0.143534)
(1.19215 2.29186e-15 0.0925092)
(1.20119 3.93614e-14 0.113458)
(1.17897 -7.58956e-14 0.0495406)
(1.18213 5.99388e-15 0.0610732)
(1.17822 -7.31809e-14 0.0170428)
(1.17916 7.49204e-14 0.0399191)
(0.858632 -6.33711e-15 0.205242)
(0.868349 3.5208e-14 0.227248)
(0.878347 0 0.248142)
(0.89019 3.63441e-14 0.268725)
(0.850239 2.46485e-14 0.183672)
(0.842351 -5.39901e-15 0.159941)
(0.836033 -7.17379e-14 0.137093)
(0.828544 8.61105e-15 0.114462)
(0.902351 7.83275e-15 0.288702)
(0.917297 2.94798e-15 0.307776)
(0.819501 6.1867e-16 0.0915015)
(0.812629 3.52451e-15 0.0718616)
(0.80918 3.35025e-15 0.0189307)
(0.948423 -3.16918e-14 0.341543)
(0.932013 2.21245e-15 0.325025)
(1.06654 -2.14642e-14 0.419996)
(1.08696 -6.2626e-14 0.426051)
(1.0506 -3.85841e-15 0.441493)
(1.01505 6.86401e-14 0.424612)
(0.978652 3.25577e-14 0.399992)
(0.942651 -3.53858e-14 0.371168)
(1.13411 6.63535e-15 0.409971)
(1.19829 -2.11117e-15 0.346491)
(1.1925 -5.77137e-14 0.372133)
(1.20435 9.62729e-15 0.322862)
(1.20941 0 0.300855)
(1.21555 4.85375e-14 0.279609)
(1.21904 4.67567e-14 0.258276)
(1.22177 -6.83178e-15 0.237068)
(1.2193 1.04148e-14 0.214588)
(1.21799 -3.43808e-14 0.194203)
(1.21735 -9.55644e-14 0.175151)
(1.17895 -4.71328e-14 0.393184)
(1.16641 9.68096e-15 0.414283)
(1.21662 -4.8715e-14 0.156735)
(1.21173 1.4737e-14 0.137265)
(1.19592 -4.67322e-15 0.0955544)
(1.18709 -3.40605e-15 0.0833672)
(1.20236 -1.05701e-14 0.105718)
(1.18272 7.75687e-14 0.0735649)
(1.18706 3.19627e-15 0.0603458)
(1.1801 1.13405e-15 0.0135591)
(1.18525 -3.49339e-15 0.0444426)
(1.17879 7.99216e-16 0.0334297)
(0.83553 -7.78557e-14 0.211344)
(0.855202 -2.00982e-14 0.255879)
(0.878731 1.37787e-14 0.298487)
(0.818078 -7.03655e-14 0.165047)
(0.800312 -6.33016e-14 0.118796)
(0.908372 5.06595e-14 0.337147)
(0.800259 1.19203e-14 0.0464044)
(0.790091 9.25619e-16 0.0748197)
(0.785675 3.21578e-15 0.0171592)
(1.11143 -2.10808e-14 0.434037)
(1.09163 7.16118e-21 0.453892)
(1.05518 1.13921e-15 0.468724)
(1.03397 -3.84245e-14 0.462251)
(1.01658 2.15025e-14 0.453657)
(0.996522 -9.20511e-15 0.441621)
(0.977428 -3.60895e-14 0.430138)
(0.956801 3.58582e-14 0.415929)
(0.937922 2.0076e-15 0.401447)
(0.918529 -1.26061e-14 0.384653)
(1.14073 9.85698e-15 0.436489)
(1.21269 8.96507e-15 0.341846)
(1.19724 -9.57855e-15 0.391719)
(1.22283 -1.09512e-15 0.297108)
(1.23103 -5.58476e-15 0.251779)
(1.22703 2.15764e-14 0.208184)
(1.22406 1.16574e-15 0.168701)
(1.1556 4.28048e-14 0.437749)
(1.17446 8.81415e-15 0.4403)
(1.20746 4.76208e-16 0.118428)
(1.21459 1.50727e-14 0.130527)
(1.18886 5.77127e-16 0.0788832)
(1.20524 -8.02947e-14 0.101341)
(1.19093 -5.24315e-15 0.0544487)
(1.17722 -1.07981e-15 0.0246027)
(1.17883 5.41422e-16 0.0164055)
(1.17972 -7.43753e-14 0.0318118)
(0.82106 1.15185e-15 0.239702)
(0.811041 4.15708e-15 0.216632)
(0.831149 1.98827e-14 0.262759)
(0.843063 -3.96812e-14 0.285337)
(0.855343 -3.95199e-14 0.307166)
(0.869922 -3.6934e-14 0.328537)
(0.80204 4.24286e-14 0.193673)
(0.792766 0 0.169282)
(0.78183 -7.00497e-14 0.146883)
(0.771792 1.46006e-14 0.123425)
(0.901472 3.73082e-14 0.367466)
(0.884479 -1.15569e-15 0.34809)
(0.768279 6.80345e-14 0.0989756)
(0.765249 -1.24112e-14 0.075513)
(0.765864 2.46284e-15 0.0196232)
(1.07636 3.96486e-14 0.474085)
(1.10051 -1.37711e-14 0.479371)
(1.06242 6.56406e-14 0.500427)
(1.01954 3.53397e-16 0.48341)
(0.97766 -3.44792e-14 0.461827)
(0.934648 3.41842e-14 0.433659)
(0.895762 -1.01645e-15 0.400811)
(1.14458 9.79343e-14 0.463659)
(1.21977 5.35382e-15 0.362747)
(1.22477 0 0.338494)
(1.21196 4.17954e-14 0.388202)
(1.20447 3.94883e-14 0.415572)
(1.23069 -1.00593e-15 0.315867)
(1.2333 -8.24298e-15 0.29219)
(1.23597 -7.18678e-15 0.267502)
(1.23772 1.66303e-14 0.247865)
(1.2338 -3.92568e-14 0.201029)
(1.23622 2.7429e-14 0.220842)
(1.23137 -1.4687e-15 0.181116)
(1.22704 4.0386e-14 0.162702)
(1.19182 6.76776e-15 0.439031)
(1.17955 0 0.458477)
(1.22202 -8.3308e-16 0.143427)
(1.21775 8.07273e-15 0.124296)
(1.19484 7.32191e-14 0.0669888)
(1.19634 1.70342e-15 0.0773407)
(1.20239 -7.18887e-14 0.086839)
(1.20786 9.98481e-15 0.0957757)
(1.18947 7.35303e-14 0.0505133)
(1.18122 -7.3017e-14 0.0223823)
(1.17627 -2.00647e-16 0.0114556)
(1.18205 2.90163e-16 0.0309841)
(0.806381 2.86595e-14 0.270905)
(0.785335 4.02402e-14 0.2232)
(0.831518 -4.15552e-14 0.31725)
(0.862224 -4.00675e-14 0.361268)
(0.764057 4.83182e-14 0.174606)
(0.745414 1.2259e-13 0.128003)
(0.74933 -1.30219e-17 0.0484584)
(0.733397 -5.11647e-14 0.0789596)
(0.733209 2.34286e-15 0.0178947)
(1.1272 5.14723e-14 0.484182)
(1.1124 -4.9503e-14 0.506081)
(1.04307 9.3351e-15 0.52471)
(1.06846 4.52899e-14 0.530617)
(1.02193 -1.15414e-14 0.512704)
(0.9996 1.58488e-15 0.503003)
(0.97982 -2.84529e-15 0.492956)
(0.954969 2.59198e-15 0.479804)
(0.933121 2.5871e-15 0.466037)
(0.911088 -2.14075e-14 0.449885)
(0.891051 -4.03125e-14 0.434735)
(0.870586 4.35093e-14 0.415487)
(1.15533 1.99803e-14 0.488653)
(1.2281 1.5398e-14 0.383382)
(1.23889 -1.46853e-14 0.333509)
(1.21048 1.86603e-14 0.435873)
(1.24442 -7.11383e-15 0.286137)
(1.23894 3.08472e-14 0.237877)
(1.24798 1.14358e-14 0.253347)
(1.24004 1.50917e-14 0.195676)
(1.24406 -6.15767e-14 0.231849)
(1.23037 -6.52368e-15 0.154874)
(1.17352 -3.46688e-14 0.48101)
(1.19156 -4.71894e-15 0.477819)
(1.21437 7.83653e-14 0.106569)
(1.22166 7.11767e-15 0.117215)
(1.19678 -6.71246e-17 0.0712373)
(1.20846 7.84728e-14 0.0897606)
(1.18417 0 0.039422)
(1.18743 0 0.0471971)
(1.17554 7.34864e-14 0.0118067)
(1.18302 7.33834e-14 0.0289098)
(0.793498 4.68965e-14 0.303167)
(0.780673 -8.71361e-15 0.27846)
(0.769747 6.74749e-16 0.253711)
(0.758341 3.37967e-16 0.228677)
(0.806864 3.38518e-14 0.326111)
(0.82088 -4.39206e-14 0.350034)
(0.853248 3.99185e-14 0.395316)
(0.835778 -4.50038e-14 0.372679)
(0.747667 4.48905e-14 0.202634)
(0.737617 -9.56114e-15 0.178902)
(0.728238 -8.6513e-15 0.156932)
(0.718722 1.89137e-15 0.130415)
(0.713758 -8.9794e-14 0.102754)
(0.709948 1.01273e-14 0.0795794)
(0.713903 0 0.0190925)
(1.09623 -1.459e-14 0.530891)
(1.12673 -3.17629e-14 0.531199)
(1.0247 1.02236e-14 0.54483)
(1.077 1.65626e-14 0.556621)
(0.979987 -3.82466e-14 0.527123)
(0.932696 -4.35771e-14 0.500372)
(0.888786 2.37369e-14 0.470304)
(0.846304 5.8777e-14 0.431346)
(1.16659 -7.14743e-14 0.507547)
(1.24388 2.80588e-14 0.380269)
(1.23578 -1.7152e-15 0.405688)
(1.25111 5.30561e-15 0.355725)
(1.25007 -1.56832e-14 0.328917)
(1.22739 2.50421e-15 0.431499)
(1.22045 1.45467e-15 0.460186)
(1.25061 0 0.303503)
(1.25455 0 0.281988)
(1.25557 -4.24741e-15 0.268657)
(1.25642 -4.64051e-15 0.26041)
(1.2459 2.42994e-14 0.192005)
(1.25131 2.73313e-14 0.210984)
(1.25548 -6.30869e-14 0.246614)
(1.25134 -9.27611e-14 0.228787)
(1.24056 -5.86512e-14 0.167298)
(1.23478 3.54653e-14 0.145217)
(1.20737 -1.36403e-14 0.483339)
(1.19873 3.72228e-14 0.502829)
(1.22986 3.99077e-14 0.127235)
(1.22321 4.61558e-15 0.109206)
(1.19135 -1.16536e-15 0.055836)
(1.19738 -1.14761e-15 0.065219)
(1.20295 6.20912e-16 0.0741696)
(1.20954 6.28874e-16 0.0831382)
(1.18757 0 0.0433326)
(1.1793 7.31503e-14 0.0178505)
(1.17671 0 0.00922132)
(1.18339 -3.25776e-16 0.0248136)
(0.781641 5.42761e-14 0.337611)
(0.754259 -2.19766e-14 0.28821)
(0.730013 2.34247e-14 0.234995)
(0.811416 -2.18528e-14 0.38524)
(0.711958 2.09625e-15 0.18476)
(0.691492 -5.21325e-15 0.132572)
(0.697319 5.06535e-14 0.0499636)
(0.680013 1.00096e-13 0.0828472)
(0.683738 4.92861e-14 0.0167002)
(1.14688 2.8987e-14 0.544872)
(1.12391 0 0.56233)
(1.03229 -1.6144e-14 0.572315)
(1.00263 7.40578e-14 0.564794)
(1.10241 0 0.575961)
(1.0778 1.61831e-14 0.585189)
(0.979305 2.49779e-14 0.561901)
(0.955017 -2.45204e-14 0.550695)
(0.933072 -3.38325e-14 0.534272)
(0.906006 3.94826e-15 0.519633)
(0.883923 8.88938e-14 0.504741)
(0.859539 4.8355e-16 0.485567)
(0.838202 -4.0517e-14 0.464308)
(0.818434 0 0.441374)
(1.18688 5.91671e-15 0.519453)
(1.17066 -1.11841e-14 0.531468)
(1.26244 4.18949e-14 0.374283)
(1.24556 -1.05119e-14 0.425445)
(1.26052 7.26601e-15 0.32269)
(1.22709 -2.36383e-14 0.481713)
(1.26873 -1.01578e-14 0.285307)
(1.26421 -2.1103e-14 0.257155)
(1.25312 2.64653e-14 0.181473)
(1.26202 -3.04496e-15 0.222819)
(1.23878 -1.09078e-14 0.136706)
(1.20222 -1.95365e-14 0.524796)
(1.21663 0 0.0919877)
(1.22495 2.38528e-15 0.100839)
(1.19754 7.46494e-14 0.0598056)
(1.21025 0 0.0761653)
(1.18472 -7.28226e-14 0.0318908)
(1.18846 -5.08028e-16 0.0395905)
(1.17653 7.32309e-14 0.00913201)
(1.1829 -7.342e-14 0.0235278)
(0.753016 2.22633e-14 0.346323)
(0.768601 7.73842e-16 0.371578)
(0.738237 7.82098e-16 0.321605)
(0.723962 -4.47559e-14 0.294241)
(0.711989 6.1731e-16 0.26559)
(0.701635 2.23286e-14 0.238789)
(0.801607 0 0.418365)
(0.784943 7.49087e-16 0.394246)
(0.692381 5.15143e-14 0.212435)
(0.682077 9.47327e-15 0.187012)
(0.672556 -6.85763e-15 0.160181)
(0.664848 -2.00671e-14 0.132263)
(0.659494 -5.36534e-15 0.106538)
(0.655008 -7.46129e-15 0.082247)
(0.664087 4.8789e-16 0.0195308)
(1.17178 6.35272e-14 0.562198)
(1.12205 0 0.587406)
(1.0506 -2.85692e-14 0.595297)
(1.02289 -4.26952e-14 0.609225)
(0.979162 5.55137e-14 0.586112)
(1.07389 3.78029e-14 0.622503)
(0.929824 -1.5951e-14 0.570496)
(0.880576 3.63445e-14 0.536703)
(0.832372 -4.45895e-14 0.503033)
(0.791829 5.05085e-14 0.454424)
(1.272 7.76079e-14 0.375918)
(1.26528 -1.01151e-14 0.39617)
(1.26022 -3.02498e-14 0.418874)
(1.25483 0 0.446974)
(1.27145 -4.52794e-15 0.310956)
(1.27201 8.07013e-15 0.33623)
(1.24551 -1.42142e-14 0.476451)
(1.23768 6.66653e-14 0.506123)
(1.28104 -1.15682e-14 0.299635)
(1.2687 -7.47014e-15 0.244508)
(1.27388 2.27121e-14 0.262604)
(1.26454 1.17216e-13 0.191279)
(1.25661 1.12161e-13 0.169118)
(1.27107 2.10564e-14 0.228317)
(1.24847 -8.90971e-15 0.146718)
(1.24053 -4.3108e-14 0.12719)
(1.22402 -4.35803e-16 0.530493)
(1.21165 -6.507e-14 0.552674)
(1.23359 2.28922e-15 0.109247)
(1.22611 -8.40782e-18 0.0923832)
(1.19258 7.5067e-14 0.0468967)
(1.19807 5.51413e-15 0.0542869)
(1.20415 -7.15702e-14 0.0615073)
(1.21137 0 0.0688363)
(1.18926 -5.08887e-16 0.0355022)
(1.17851 7.32586e-14 0.0141339)
(1.17713 -5.72315e-18 0.00775673)
(1.185 -7.11873e-17 0.0242018)
(1.18043 1.63263e-20 0.0189602)
(0.723988 7.22572e-14 0.356705)
(0.75665 -9.16975e-17 0.406157)
(0.693768 -7.29201e-14 0.300513)
(0.671957 0 0.24423)
(0.653605 -8.95739e-14 0.188898)
(0.636654 -5.22503e-14 0.133854)
(0.642561 -1.02829e-13 0.0514981)
(0.620697 -4.49712e-14 0.0848847)
(0.629685 -4.62621e-14 0.0173437)
(1.19385 3.74285e-14 0.572653)
(1.17524 -2.95786e-14 0.588855)
(1.15068 -5.91459e-14 0.603873)
(1.12551 0 0.622679)
(0.998227 -1.36127e-17 0.61541)
(1.01735 -7.09244e-15 0.637386)
(0.971326 -1.39697e-14 0.616563)
(1.1005 2.01748e-14 0.639849)
(1.07573 -3.09313e-14 0.653791)
(0.899239 -2.0723e-14 0.58377)
(0.923571 -5.01469e-15 0.599399)
(0.880666 -9.77286e-16 0.563085)
(0.853759 -1.01975e-14 0.548412)
(0.830592 -1.55484e-14 0.537151)
(0.804465 -6.31606e-15 0.51508)
(0.782019 4.99801e-14 0.490081)
(0.761779 5.45712e-15 0.46532)
(1.27854 6.51341e-14 0.365612)
(1.2885 -1.33094e-14 0.389079)
(1.27565 -3.50916e-14 0.415958)
(1.26557 1.49022e-14 0.468536)
(1.28671 -4.24093e-14 0.350992)
(1.24367 4.00984e-14 0.528533)
(1.28537 5.59125e-14 0.288492)
(1.29382 -7.12771e-14 0.31486)
(1.28837 -1.03264e-15 0.273897)
(1.27505 3.67305e-14 0.214808)
(1.27725 -2.82145e-14 0.200619)
(1.26051 8.58302e-16 0.157701)
(1.28592 -6.08285e-14 0.237365)
(1.24304 -6.12127e-16 0.117482)
(1.21822 3.91338e-14 0.57994)
(1.21885 -2.41419e-15 0.0761111)
(1.22776 -2.11199e-15 0.08349)
(1.19862 -7.18227e-14 0.0482368)
(1.21203 -7.43167e-14 0.0615105)
(1.19016 -1.67297e-25 0.0302823)
(1.1812 -7.31602e-14 0.0170372)
(1.1768 -7.32367e-14 0.00724271)
(0.707434 4.7728e-14 0.387474)
(0.690901 -1.5418e-14 0.359662)
(0.743166 -4.69914e-14 0.437984)
(0.724497 -9.89414e-16 0.413176)
(0.676367 -1.07989e-13 0.331821)
(0.664569 8.25156e-15 0.30254)
(0.653315 5.39865e-14 0.274175)
(0.642756 6.72832e-15 0.246556)
(0.632576 -4.25089e-14 0.219358)
(0.62329 5.44724e-15 0.191161)
(0.614223 5.43347e-14 0.163959)
(0.605146 -7.72992e-15 0.136082)
(0.599624 -5.24126e-16 0.108631)
(0.596277 1.47792e-14 0.0843313)
(0.610047 -8.08486e-15 0.0193931)
(1.17802 7.9408e-15 0.615939)
(1.13051 -2.72875e-15 0.655046)
(1.04632 -4.52303e-14 0.66404)
(1.01733 0 0.672995)
(0.941581 -2.97226e-15 0.625105)
(0.961535 7.45881e-15 0.65664)
(1.07785 -4.62651e-14 0.685808)
(0.869231 7.35489e-14 0.594539)
(0.908896 -3.90848e-14 0.64097)
(0.826506 -1.72008e-15 0.568742)
(0.773191 2.42688e-14 0.529181)
(0.729277 -4.55901e-14 0.476201)
(1.2874 -6.46042e-14 0.409496)
(1.29782 -1.60507e-14 0.401087)
(1.28661 -6.0623e-15 0.434136)
(1.28476 1.93388e-14 0.464762)
(1.28193 -5.59768e-15 0.497992)
(1.29659 -1.06213e-13 0.340605)
(1.30135 -3.81453e-14 0.364667)
(1.26938 -7.25624e-14 0.528817)
(1.25609 -4.50668e-14 0.559062)
(1.30808 -1.06386e-14 0.328109)
(1.29311 -1.15318e-13 0.260496)
(1.30165 -5.89017e-14 0.284297)
(1.28208 -1.44997e-14 0.189845)
(1.29172 -9.16187e-14 0.210482)
(1.2737 2.00571e-14 0.168424)
(1.26404 -7.75811e-14 0.147787)
(1.2985 -2.11832e-14 0.246744)
(1.25449 -4.08034e-14 0.127974)
(1.24586 7.06044e-14 0.109881)
(1.2411 3.73765e-14 0.584469)
(1.2265 2.76834e-14 0.607521)
(1.23768 7.36836e-14 0.0919081)
(1.22887 7.44047e-14 0.075002)
(1.19379 0 0.0362129)
(1.19961 0 0.0424245)
(1.20563 -7.52009e-14 0.0481739)
(1.21313 -2.95164e-15 0.0540382)
(1.18995 7.33228e-14 0.0266618)
(1.18523 2.0557e-16 0.0186187)
(1.18196 -4.67105e-17 0.0137629)
(1.17906 7.32291e-14 0.0100968)
(1.17745 0 0.00563358)
(0.691317 3.59917e-17 0.420877)
(0.658837 -5.2869e-14 0.36511)
(0.633828 5.12268e-14 0.307458)
(0.611638 -5.99633e-14 0.250448)
(0.5914 4.50111e-14 0.195277)
(0.576014 6.20713e-14 0.138439)
(0.587412 5.61628e-17 0.052424)
(0.563785 9.94707e-17 0.0872407)
(0.577484 -1.38019e-16 0.0163176)
(1.20504 6.17366e-14 0.626866)
(1.18402 2.03181e-14 0.64753)
(1.16053 -4.31337e-14 0.666954)