/*--------------------------------*- C++ -*----------------------------------*\
  =========                 |
  \\      /  F ield         | OpenFOAM: The Open Source CFD Toolbox
   \\    /   O peration     | Website:  https://openfoam.org
    \\  /    A nd           | Version:  7
     \\/     M anipulation  |
\*---------------------------------------------------------------------------*/
FoamFile
{
    version     2.0;
    format      ascii;
    class       volVectorField;
    location    "20";
    object      U;
}
// * * * * * * * * * * * * * * * * * * * * * * * * * * * * * * * * * * * * * //

dimensions      [0 1 -1 0 0 0 0];

internalField   nonuniform List<vector> 
2878
(
(1.00007 0 6.90327e-05)
(0.998217 7.78046e-15 0.00121245)
(0.995297 -8.57651e-15 0.00296272)
(0.997348 1.2689e-13 0.00595876)
(0.99156 0 0.0044662)
(0.992011 -7.85061e-14 0.0106576)
(0.99562 7.8596e-14 0.00924124)
(0.998735 -1.28291e-13 0.00353996)
(0.987935 0 0.00336875)
(0.98809 6.75207e-14 0.013667)
(0.992031 8.21636e-15 0.0189286)
(0.997236 -1.97169e-15 0.0100297)
(0.982101 5.14882e-15 0.00403469)
(0.98262 -1.26575e-13 0.0270205)
(0.982299 -9.513e-14 0.0168484)
(0.988236 1.26481e-13 0.0243493)
(0.995857 -1.4015e-14 0.0161379)
(0.998104 0 0.00599185)
(0.976437 9.43612e-14 0.00342345)
(0.977505 -4.84068e-15 0.0321352)
(0.977035 -3.88024e-22 0.0189542)
(0.983749 0 0.0397993)
(0.99282 1.45524e-14 0.0274262)
(0.997831 -1.23967e-13 0.0139989)
(0.96962 -9.99744e-14 0.00439613)
(0.972265 -8.68187e-14 0.0493375)
(0.970455 1.13134e-14 0.0337812)
(0.969676 0 0.0218424)
(0.989202 0 0.0356801)
(0.979445 3.39345e-14 0.0473464)
(0.99656 -2.06581e-15 0.0220822)
(0.997784 1.28353e-13 0.00766225)
(0.962513 0 0.00390605)
(0.966749 9.8734e-14 0.0558507)
(0.964014 0 0.0386776)
(0.962516 -1.31375e-14 0.0236584)
(0.987422 0 0.0501543)
(0.974983 9.33236e-14 0.0652042)
(0.99446 1.44421e-13 0.0338316)
(0.99771 1.26783e-13 0.0168449)
(0.955762 0 0.00407703)
(0.958835 -1.02337e-13 0.0567937)
(0.962845 0 0.0738744)
(0.955972 1.40916e-14 0.0397625)
(0.954036 0 0.0263843)
(0.982455 -4.95943e-14 0.0615543)
(0.991742 -4.50562e-15 0.0436725)
(0.971872 0 0.0741681)
(0.997553 -1.3492e-13 0.0260327)
(0.997377 -1.30644e-13 0.00870743)
(0.945682 0 0.00663463)
(0.951687 -1.07629e-13 0.0633147)
(0.956348 0 0.0816879)
(0.947323 6.65953e-15 0.0456583)
(0.945036 0 0.0286225)
(0.982428 -1.50401e-14 0.0767904)
(0.990452 -6.56423e-14 0.0551134)
(0.967149 0 0.087461)
(0.995369 0 0.0387807)
(0.996997 1.40084e-13 0.0199886)
(0.936237 0 0.0108921)
(0.935132 1.89174e-15 0.0293601)
(0.942676 1.07506e-13 0.0667126)
(0.948077 0 0.0839344)
(0.95221 6.67317e-14 0.100405)
(0.937544 -1.80933e-15 0.0475424)
(0.979255 0 0.0868325)
(0.985148 -1.85242e-14 0.0696058)
(0.994633 7.37267e-14 0.0461289)
(0.959153 -3.46235e-14 0.0984941)
(0.9728 0 0.0977618)
(0.996792 -6.76418e-22 0.0314198)
(0.996956 -1.43157e-13 0.0103746)
(0.927791 -1.95782e-15 0.0110155)
(0.924699 1.2212e-13 0.0327282)
(0.934532 3.08095e-14 0.0737874)
(0.941199 -3.04275e-14 0.0926136)
(0.946265 -7.81311e-15 0.110573)
(0.928884 -1.34859e-14 0.053149)
(0.979851 -8.188e-14 0.104384)
(0.991822 0 0.0729775)
(0.993838 0 0.0601163)
(0.959891 -4.47967e-14 0.110507)
(0.970228 -6.82249e-14 0.106856)
(1.00188 -1.23778e-14 0.0341)
(0.998714 -1.09419e-13 0.0241577)
(0.916018 -3.98777e-15 0.0143157)
(0.913379 -1.27669e-13 0.03296)
(0.91794 -1.03901e-15 0.0542012)
(0.930223 -3.17426e-14 0.0942267)
(0.923421 1.6435e-14 0.0750007)
(0.936806 3.23444e-14 0.113014)
(0.944248 0 0.130746)
(0.979553 2.69059e-15 0.117357)
(0.985909 9.85979e-14 0.0967025)
(0.989694 -1.04832e-14 0.0840341)
(0.996946 0 0.0543894)
(0.953326 0 0.12852)
(0.967731 6.11371e-14 0.123203)
(0.99873 -1.48902e-14 0.0433219)
(0.998115 1.24487e-13 0.016147)
(0.904759 4.21493e-15 0.0134654)
(0.901636 -9.1748e-15 0.0370132)
(0.907331 1.82823e-14 0.0602481)
(0.92205 0 0.103507)
(0.913692 1.67758e-14 0.0827417)
(0.929803 0 0.123152)
(0.940069 0 0.141592)
(0.977662 -5.08644e-15 0.132278)
(0.988093 -6.97652e-14 0.110752)
(0.994916 -7.70729e-14 0.078578)
(0.99665 0 0.066586)
(0.962268 0 0.135369)
(0.996029 -5.17834e-14 0.0333244)
(1.0021 0 0.01643)
(0.889048 -2.22102e-15 0.0362625)
(0.891872 0 0.0164804)
(0.89454 9.09413e-15 0.0611848)
(0.901288 -1.81285e-14 0.0840827)
(0.918806 -4.24059e-15 0.124898)
(0.910041 -1.84665e-14 0.104919)
(0.928442 0 0.14303)
(0.935346 3.95496e-14 0.161808)
(0.974231 2.28678e-14 0.149767)
(0.989397 -9.23522e-15 0.12432)
(0.989437 1.06768e-13 0.103476)
(0.994906 9.8457e-14 0.0902417)
(0.995265 -2.25566e-15 0.0570797)
(0.955399 -1.89208e-14 0.151226)
(0.998812 0 0.0219861)
(0.995748 7.40875e-14 0.0450627)
(0.875754 -2.24114e-15 0.0410967)
(0.878705 2.30473e-15 0.0152671)
(0.88232 0 0.0676294)
(0.889588 2.88107e-16 0.0926977)
(0.909739 4.29117e-15 0.136568)
(0.899196 2.88555e-16 0.115854)
(0.920716 8.75981e-14 0.15943)
(0.928014 -1.34304e-13 0.171823)
(0.952783 -4.53239e-14 0.165518)
(0.972841 2.73557e-14 0.164871)
(0.987739 4.31239e-14 0.139343)
(0.994104 1.21844e-14 0.104322)
(0.99692 0 0.0817705)
(0.995551 0 0.0681707)
(0.996877 -1.2448e-13 0.0206111)
(1.00393 -1.35514e-13 0.0329273)
(0.867504 4.60067e-15 0.0694789)
(0.861241 -2.35297e-15 0.0409309)
(0.864012 0 0.0189129)
(0.875486 0 0.0958211)
(0.885592 5.77359e-16 0.12057)
(0.897171 -5.67548e-16 0.143115)
(0.909894 -7.21043e-14 0.163745)
(0.92057 5.85825e-14 0.186188)
(0.95054 6.1787e-14 0.177543)
(0.986491 -4.82584e-14 0.154936)
(0.971134 -7.44705e-14 0.178633)
(0.994163 -1.31932e-13 0.130329)
(0.993972 3.65795e-14 0.116259)
(0.996433 -5.22761e-15 0.0905699)
(1.00017 -1.37327e-13 0.0571126)
(0.996473 1.24487e-13 0.013432)
(1.00244 1.38227e-13 0.0456908)
(0.854939 0 0.0759877)
(0.847415 2.00309e-14 0.0460292)
(0.849927 0 0.0172139)
(0.86453 4.09987e-14 0.104284)
(0.876161 -4.11717e-14 0.131322)
(0.889678 6.16904e-16 0.155588)
(0.904823 3.81228e-14 0.177583)
(0.91428 -3.94538e-14 0.199947)
(0.93972 9.65565e-15 0.195015)
(0.957493 8.18957e-15 0.19231)
(0.986895 -2.18239e-14 0.170935)
(0.972518 1.17082e-13 0.196238)
(0.996119 6.10735e-14 0.143951)
(1.00531 0 0.106326)
(0.999632 -8.0405e-14 0.0919656)
(1.00165 1.48885e-13 0.0687086)
(0.997981 -1.24475e-13 0.0242642)
(1.00434 0 0.0356935)
(0.838215 -2.14557e-14 0.0734157)
(0.84768 0 0.101502)
(0.832073 0 0.0436063)
(0.834035 0 0.0205366)
(0.858535 -4.22944e-14 0.128733)
(0.871588 4.33855e-14 0.154379)
(0.886271 -8.28265e-14 0.17691)
(0.9001 8.04234e-14 0.195481)
(0.909381 0 0.223657)
(0.935941 0 0.210675)
(0.956804 -9.52079e-15 0.209372)
(0.987502 0 0.185992)
(0.997986 -6.01357e-14 0.159332)
(0.97155 5.97509e-14 0.213188)
(1.0064 2.48456e-14 0.131472)
(1.00566 -4.18933e-14 0.117963)
(0.998273 7.06996e-14 0.0837882)
(1.00248 -1.47657e-13 0.057909)
(0.997255 1.24487e-13 0.0116006)
(1.00307 -8.33558e-18 0.0454995)
(0.823161 7.69662e-14 0.0802082)
(0.833542 6.69245e-14 0.111051)
(0.816334 -8.67721e-14 0.0490963)
(0.817658 0 0.0188848)
(0.846314 -8.65747e-14 0.140013)
(0.860761 1.3579e-13 0.16729)
(0.876371 -8.7302e-14 0.19144)
(0.891239 1.17133e-13 0.214152)
(0.928639 0 0.231064)
(0.897106 -2.28518e-14 0.231857)
(0.954985 0 0.225222)
(0.989197 0 0.200593)
(0.999775 9.24297e-14 0.172878)
(0.974616 -5.18358e-14 0.229929)
(1.00858 -1.0583e-14 0.144091)
(1.00712 2.32566e-14 0.104555)
(1.00537 -1.36571e-13 0.0841294)
(1.00428 1.34567e-13 0.0684971)
(0.996911 0 0.0224958)
(1.00307 8.14087e-18 0.0335404)
(0.81569 -8.08585e-14 0.111219)
(0.80627 -1.02473e-13 0.0810072)
(0.828671 1.16445e-13 0.140165)
(0.799289 9.44266e-14 0.0482837)
(0.799834 2.95315e-15 0.0232274)
(0.843057 -9.49045e-14 0.16711)
(0.858926 4.46296e-14 0.192661)
(0.875256 -9.17243e-14 0.216662)
(0.922675 7.72496e-15 0.247861)
(0.892127 1.88289e-14 0.251844)
(0.953087 4.67956e-14 0.245967)
(0.989484 0 0.217217)
(1.00146 5.95788e-15 0.187446)
(1.01099 7.75177e-14 0.157948)
(0.973509 -1.0509e-15 0.244376)
(1.01287 1.02048e-14 0.128527)
(1.00606 1.23925e-13 0.0938247)
(1.00988 0 0.11575)
(1.00234 2.02765e-15 0.054564)
(0.997295 0 0.0107275)
(1.00238 1.92921e-15 0.0440447)
(0.800124 1.15313e-14 0.122248)
(0.789967 0 0.0885482)
(0.815093 9.51044e-14 0.152824)
(0.782728 1.02804e-13 0.0537721)
(0.782385 -1.48025e-14 0.0211455)
(0.830814 -9.60361e-14 0.182234)
(0.849406 9.06377e-14 0.209037)
(0.868547 -4.83255e-14 0.233478)
(0.917598 -5.7296e-14 0.266385)
(0.894144 0 0.274187)
(0.870121 5.00883e-14 0.258643)
(0.952823 -8.52616e-14 0.258293)
(0.993132 0 0.232491)
(1.00427 0 0.200342)
(1.01408 -9.69706e-14 0.169967)
(0.981507 0 0.263656)
(0.967287 2.05492e-14 0.264064)
(1.01619 0 0.139648)
(1.00641 4.07927e-15 0.0772442)
(1.01152 0 0.100956)
(1.00426 -3.97015e-15 0.0653854)
(1.00001 1.24373e-13 0.0223438)
(1.00545 -1.25701e-13 0.0322965)
(0.794272 -1.09645e-13 0.153841)
(0.779807 3.83236e-16 0.122408)
(0.770288 0 0.0879452)
(0.810417 9.57961e-14 0.184169)
(0.763492 -8.67082e-14 0.0505943)
(0.763492 0 0.0257352)
(0.829696 -9.56655e-14 0.212541)
(0.849244 0 0.237124)
(0.91744 3.95944e-14 0.289499)
(0.89048 -4.44867e-14 0.296069)
(0.865133 1.04085e-13 0.277761)
(0.949719 6.06895e-14 0.283048)
(0.994785 0 0.249594)
(1.00587 0 0.217731)
(1.01614 -1.02861e-13 0.186108)
(1.01933 0 0.15468)
(0.984099 8.38892e-14 0.287101)
(0.968446 -1.11586e-14 0.285424)
(1.01897 5.12804e-15 0.124094)
(1.00905 0 0.0882673)
(1.01504 -4.85041e-15 0.110856)
(1.00659 -4.17938e-15 0.0523859)
(0.998754 -1.24487e-13 0.0133532)
(1.0058 1.32548e-13 0.0414281)
(0.780134 5.41836e-14 0.167156)
(0.764513 1.39547e-13 0.13255)
(0.754679 -2.87857e-14 0.0944272)
(0.798657 -7.82811e-16 0.199933)
(0.746887 0 0.0553961)
(0.741171 0 0.0181026)
(0.820428 0 0.230462)
(0.841966 0 0.255937)
(0.917186 0 0.308986)
(0.891631 4.82059e-14 0.317904)
(0.8654 -5.27146e-14 0.30229)
(0.840587 -5.01103e-14 0.280243)
(0.951627 -1.29358e-14 0.2979)
(1.00059 0 0.267217)
(1.01005 3.70317e-14 0.232923)
(1.02009 1.10769e-13 0.199279)
(1.0235 -1.12621e-14 0.165649)
(0.986827 -1.02513e-13 0.30285)
(0.968639 0 0.299995)
(1.02276 0 0.133883)
(1.0128 0 0.0742461)
(1.01747 -7.88186e-14 0.0948893)
(1.00932 0 0.0619599)
(1.00143 0 0.0135736)
(1.00076 0 0.0301332)
(0.756887 -8.98691e-14 0.16335)
(0.773708 0 0.196922)
(0.743678 -8.82011e-14 0.127159)
(0.734928 0 0.0910592)
(0.793754 0 0.227927)
(0.721521 -5.75661e-15 0.0581813)
(0.716974 5.79698e-15 0.0169302)
(0.816538 0 0.256211)
(0.919453 5.11787e-14 0.330657)
(0.890146 -5.28065e-14 0.341225)
(0.862468 -5.51444e-14 0.324172)
(0.834434 -3.45925e-15 0.302018)
(0.949229 -9.97628e-14 0.322101)
(1.00492 1.62545e-14 0.290465)
(1.01475 -1.27641e-14 0.249793)
(1.02481 -1.16318e-13 0.214569)
(1.02762 -1.16453e-14 0.180046)
(1.02688 8.6029e-14 0.147596)
(0.987568 0 0.325643)
(0.974023 0 0.321688)
(1.02564 9.37167e-15 0.117406)
(1.01511 8.91691e-15 0.082538)
(1.02125 6.68563e-14 0.105302)
(1.00315 -1.27387e-13 0.0471305)
(0.999875 0 0.0201235)
(1.00183 -4.89423e-16 0.036985)
(0.741756 6.13112e-14 0.17691)
(0.75969 0 0.213205)
(0.727081 1.18183e-13 0.137907)
(0.716154 0 0.0987691)
(0.781907 -5.39865e-14 0.247615)
(0.701835 -1.44469e-14 0.0598501)
(0.696807 0 0.0154257)
(0.807352 -5.45261e-14 0.277134)
(0.922346 -1.03007e-13 0.3507)
(0.892514 5.57158e-14 0.362539)
(0.863243 7.2158e-14 0.34852)
(0.833985 5.66499e-14 0.32722)
(0.804856 0 0.303256)
(0.961557 4.42353e-14 0.337211)
(1.01107 -1.74777e-14 0.304712)
(1.02089 0 0.264672)
(1.03051 8.53936e-14 0.228755)
(1.03449 1.3526e-21 0.192849)
(1.03263 -7.55268e-14 0.158613)
(0.988985 0 0.340393)
(1.03089 8.1433e-15 0.127598)
(1.0111 -5.94525e-15 0.0755002)
(1.02055 -2.2357e-15 0.0862272)
(1.0066 1.32333e-13 0.0569328)
(1.00284 -1.24392e-13 0.00823192)
(1.00248 1.27198e-13 0.0318897)
(0.718473 -6.73115e-14 0.172278)
(0.734425 0 0.20863)
(0.753601 6.07252e-14 0.243222)
(0.704774 -1.23167e-13 0.134412)
(0.69139 1.50138e-14 0.095914)
(0.77748 5.65174e-14 0.275127)
(0.681474 1.52157e-14 0.0629399)
(0.678752 5.03725e-15 0.0152526)
(0.925702 1.27859e-20 0.374743)
(0.89294 -5.88441e-14 0.387168)
(0.86232 4.51281e-14 0.37266)
(0.829897 0 0.352089)
(0.797581 -5.86402e-14 0.327036)
(0.966942 -3.88666e-14 0.361384)
(1.02657 1.56896e-14 0.283263)
(1.01432 -7.72621e-14 0.326653)
(1.03562 0 0.24592)
(1.04223 -1.09822e-14 0.209108)
(1.03807 1.8395e-14 0.171634)
(1.03674 -8.73696e-14 0.138429)
(0.99379 1.70051e-14 0.364587)
(1.02882 1.6779e-14 0.1061)
(1.00516 0 0.0680807)
(1.0246 -1.63865e-14 0.0949913)
(1.01117 -1.29614e-13 0.0434881)
(1.00337 1.2558e-13 0.0150838)
(0.999399 -1.26779e-13 0.0267126)
(0.702184 -6.50605e-14 0.186733)
(0.719609 -3.33092e-14 0.225865)
(0.740744 -3.30284e-14 0.263221)
(0.686811 0 0.145814)
(0.669311 -1.21668e-13 0.105974)
(0.766938 3.07918e-14 0.296929)
(0.66157 -1.68582e-14 0.0646656)
(0.658565 0 0.0132238)
(0.930018 0 0.395722)
(0.900867 6.35075e-14 0.410185)
(0.865482 -7.75451e-15 0.397873)
(0.831356 -6.06045e-14 0.378445)
(0.796696 6.04151e-14 0.354965)
(0.76536 3.25773e-14 0.326787)
(0.972234 5.21185e-14 0.380331)
(1.03406 0 0.296972)
(1.02162 5.92692e-14 0.340023)
(1.04283 -1.77456e-15 0.258694)
(1.04831 8.55011e-22 0.216965)
(1.04791 1.82799e-14 0.182531)
(1.04363 7.87845e-14 0.147863)
(1.00059 0 0.38105)
(1.03487 9.2219e-15 0.114838)
(1.01583 1.00036e-15 0.0634664)
(1.024 -1.20945e-13 0.0776622)
(1.01432 1.24775e-13 0.0502653)
(1.00039 -1.24918e-13 0.0129948)
(1.00587 4.89481e-16 0.0250221)
(0.693536 6.61371e-14 0.220653)
(0.676775 6.95845e-14 0.181728)
(0.713523 -3.41311e-14 0.258961)
(0.73797 -2.97993e-14 0.294745)
(0.659783 0 0.142454)
(0.644387 1.32056e-13 0.103511)
(0.636086 -4.26157e-15 0.0668509)
(0.637602 4.23918e-15 0.0154197)
(0.940215 -2.39332e-14 0.418784)
(0.904052 4.78806e-14 0.440856)
(0.86697 8.01077e-15 0.423309)
(0.830884 0 0.405642)
(0.792557 0 0.381149)
(0.757409 -3.34049e-14 0.354126)
(0.974745 1.09898e-13 0.405709)
(1.03949 8.7907e-15 0.318796)
(1.04838 0 0.277599)
(1.02455 1.1157e-14 0.364759)
(1.05356 -1.22884e-14 0.237732)
(1.05538 2.58731e-14 0.209017)
(1.04929 -8.03519e-14 0.159938)
(1.05185 2.66559e-14 0.191191)
(1.04208 -9.89865e-15 0.128427)
(1.00595 0 0.395558)
(1.03504 4.36757e-15 0.0960506)
(1.01948 1.91608e-15 0.0697467)
(1.02896 1.308e-13 0.0849245)
(1.00751 0 0.0366287)
(0.998357 1.24764e-13 0.00713705)
(1.00603 0 0.0303219)
(0.677604 -1.55721e-14 0.239398)
(0.658809 5.744e-16 0.197268)
(0.700352 -3.64226e-14 0.279566)
(0.727404 -3.83072e-14 0.319341)
(0.640741 7.53087e-14 0.153362)
(0.623649 7.87099e-14 0.113617)
(0.614794 -7.76093e-14 0.0677689)
(0.615222 0 0.0139388)
(0.95134 -5.69862e-14 0.439147)
(0.870475 -2.9403e-14 0.449732)
(0.913105 3.0021e-14 0.462362)
(0.834372 -4.54363e-15 0.430668)
(0.793373 4.28178e-15 0.409914)
(0.757126 -3.50756e-14 0.383918)
(0.722979 1.04666e-13 0.35228)
(0.987995 -5.85817e-14 0.423574)
(1.04779 1.74252e-14 0.332705)
(1.05831 -2.68068e-14 0.290307)
(1.0341 2.09165e-14 0.377227)
(1.06057 0 0.24762)
(1.06374 -7.22236e-15 0.22163)
(1.05848 1.13084e-13 0.172751)
(1.06096 -1.03747e-13 0.200954)
(1.05027 0 0.1357)
(1.01707 -7.74435e-15 0.414384)
(1.04195 7.91676e-15 0.103657)
(1.01485 -1.9735e-15 0.051734)
(1.02511 1.0388e-15 0.0674293)
(1.0104 0 0.04314)
(0.9998 0 0.0118082)
(1.00486 1.24336e-13 0.0185333)
(0.671241 9.29944e-14 0.274929)
(0.649564 5.72516e-16 0.234141)
(0.630001 0 0.191671)
(0.695003 -3.81954e-14 0.314441)
(0.614693 -8.36185e-14 0.150515)
(0.598131 -7.49669e-14 0.108052)
(0.59044 8.62936e-14 0.0699278)
(0.594811 0 0.0146679)
(0.961725 0 0.461239)
(0.872624 3.75185e-14 0.472832)
(0.920171 0 0.482767)
(0.830392 -6.27254e-14 0.466776)
(0.791675 -7.61329e-14 0.439796)
(0.753062 7.30375e-14 0.41482)
(0.715807 0 0.379671)
(0.996831 -6.27474e-14 0.438888)
(1.06771 3.10735e-14 0.312476)
(1.0532 -1.87944e-14 0.35577)
(1.06649 0 0.268943)
(1.03866 -1.68776e-14 0.404183)
(1.07129 0 0.23417)
(1.07119 -1.22681e-15 0.219513)
(1.05945 -1.08192e-13 0.149734)
(1.06757 -3.94896e-14 0.183673)
(1.04854 5.8495e-14 0.112357)
(1.01886 6.70025e-14 0.439789)
(1.03727 0 0.0822853)
(1.01981 0 0.0584964)
(1.0309 0 0.0739559)
(1.00822 0 0.0306995)
(0.998946 0 0.00527161)
(1.00647 -1.24605e-13 0.0234557)
(0.657734 0 0.298743)
(0.632631 -3.7674e-14 0.255609)
(0.611603 3.88018e-14 0.207362)
(0.685044 0 0.339637)
(0.595134 8.5331e-14 0.163308)
(0.578237 6.06156e-14 0.116939)
(0.568488 8.38075e-14 0.0712946)
(0.572491 8.48379e-14 0.0128998)
(0.990186 5.37033e-14 0.468908)
(0.950413 0 0.491022)
(0.880724 -6.95555e-14 0.499862)
(0.834136 8.5168e-14 0.486482)
(0.907544 2.9594e-14 0.517452)
(0.794499 1.80964e-14 0.468495)
(0.749826 7.79299e-14 0.443053)
(0.709501 -6.81195e-14 0.410185)
(0.677665 0 0.370585)
(1.07505 3.91091e-14 0.321261)
(1.0632 0 0.366641)
(1.07632 1.21617e-14 0.279766)
(1.04873 -2.3194e-14 0.415807)
(1.08431 -1.69574e-14 0.250415)
(1.07969 -3.62887e-14 0.219121)
(1.07017 1.33756e-13 0.158447)
(1.07655 2.97308e-14 0.194118)
(1.05656 -7.20531e-14 0.119496)
(1.02898 -1.15643e-13 0.455006)
(1.0447 4.04673e-15 0.0889513)
(1.01572 1.27972e-13 0.0434027)
(1.02625 0 0.0556913)
(1.01158 -8.62947e-16 0.0362832)
(1.00089 1.24477e-13 0.00956123)
(1.0042 -1.2167e-16 0.0174611)
(0.622383 3.74898e-14 0.290245)
(0.648856 1.27021e-15 0.33115)
(0.598551 -3.83906e-14 0.24454)
(0.581456 0 0.19899)
(0.565565 -6.65243e-14 0.153811)
(0.552845 -8.85431e-14 0.108304)
(0.541588 -9.31369e-14 0.0723105)
(0.550601 -8.16564e-14 0.0149776)
(1.00148 5.42362e-14 0.485728)
(0.960433 0 0.510266)
(0.862034 -1.14297e-14 0.530256)
(0.83413 1.15044e-14 0.509904)
(0.917825 3.42774e-14 0.539222)
(0.784154 -4.07121e-14 0.499354)
(0.747867 -1.66427e-15 0.465186)
(0.705811 -1.07304e-14 0.443084)
(0.668098 8.5452e-14 0.401707)
(1.0877 9.01405e-14 0.321642)
(1.07788 -4.77947e-14 0.348461)
(1.06922 0 0.39263)
(1.08617 1.83296e-15 0.29145)
(1.05272 1.27897e-13 0.443404)
(1.09509 -8.51468e-16 0.261114)
(1.0891 1.00465e-13 0.229105)
(1.07913 6.8159e-14 0.166361)
(1.06599 6.00687e-14 0.130135)
(1.08726 0 0.196721)
(1.05198 0 0.0964515)
(1.02908 6.98403e-15 0.485778)
(1.03942 -4.05507e-15 0.068246)
(1.02064 -1.22919e-13 0.0487836)
(1.03252 0 0.0610331)
(1.0099 -2.82907e-25 0.0236429)
(1.00258 1.21698e-16 0.0144605)
(0.999129 -1.24487e-13 0.00447436)
(0.608731 8.37489e-14 0.31522)
(0.637564 -1.34462e-15 0.358378)
(0.582016 -8.35151e-14 0.265308)
(0.562098 0 0.215425)
(0.544981 -8.60499e-14 0.167489)
(0.529477 0 0.119274)
(0.51827 1.19264e-14 0.0724579)
(0.526783 0 0.0134851)
(0.994926 -9.91316e-14 0.515135)
(0.952793 0 0.547226)
(0.870486 0 0.555519)
(0.812079 -3.94263e-14 0.543614)
(0.909123 -7.87121e-14 0.571185)
(0.749314 -5.59443e-21 0.492158)
(0.78756 3.67235e-14 0.522367)
(0.706117 -1.49323e-14 0.46607)
(0.661693 0 0.432255)
(0.625843 -8.10954e-14 0.388265)
(1.09883 -9.33742e-14 0.337957)
(1.0891 -1.2088e-14 0.357624)
(1.08397 2.9277e-14 0.405529)
(1.09922 -6.85165e-14 0.303275)
(1.06486 -8.37556e-14 0.458111)
(1.10511 -1.15824e-13 0.273582)
(1.10041 -1.00782e-13 0.235941)
(1.09117 -1.05921e-13 0.174144)
(1.07689 -6.36169e-14 0.138087)
(1.0975 -9.50615e-14 0.205929)
(1.06084 -1.05795e-15 0.103125)
(1.04283 5.82916e-14 0.500302)
(1.0473 4.99689e-16 0.0734445)
(1.01678 0 0.0336512)
(1.02765 -1.26511e-13 0.0437838)
(1.01317 0 0.0278931)
(1.00521 -1.24553e-13 0.0140103)
(1.00118 0 0.00721355)
(0.594452 -3.41214e-16 0.34335)
(0.568291 -9.92044e-14 0.296779)
(0.548395 9.11755e-14 0.250075)
(0.530515 1.13504e-14 0.203957)
(0.514704 9.10122e-14 0.158249)
(0.501274 -1.2412e-14 0.111913)
(0.492891 1.31387e-14 0.0741957)
(0.50555 -1.30317e-14 0.0144801)
(1.00852 1.09883e-13 0.532121)
(0.96857 -4.4968e-15 0.565726)
(0.857634 0 0.588961)
(0.820097 4.53829e-14 0.569535)
(0.924734 0 0.595127)
(0.726245 1.26706e-13 0.519354)
(0.76142 -9.19299e-14 0.562728)
(0.69943 1.363e-14 0.502924)
(0.650448 4.17304e-14 0.467687)
(0.61365 0 0.419804)
(1.11103 9.84496e-14 0.347405)
(1.09932 4.44655e-15 0.384718)
(1.09512 -3.5931e-14 0.439248)
(1.11227 0 0.315891)
(1.06875 0 0.489978)
(1.11839 1.03924e-13 0.284051)
(1.11261 0 0.247237)
(1.08794 8.89902e-14 0.147576)
(1.10411 -5.20504e-14 0.183231)
(1.07186 -6.81022e-14 0.114286)
(1.11036 6.60547e-14 0.214011)
(1.05669 1.26109e-13 0.0828719)
(1.04046 -7.99161e-15 0.531829)
(1.04143 1.2779e-13 0.0540129)
(1.02189 0 0.0380372)
(1.03406 1.22046e-13 0.0477166)
(1.0095 1.2459e-13 0.0176328)
(1.0033 1.24474e-13 0.00994877)
(0.999493 0 0.00310414)
(0.580969 3.70708e-16 0.370823)
(0.55241 6.17035e-15 0.323023)
(0.530507 -7.56262e-16 0.27174)
(0.510427 -1.09051e-13 0.221195)
(0.491871 -1.19228e-14 0.173384)
(0.477888 1.15584e-13 0.123189)
(0.469173 -1.30571e-14 0.0744287)
(0.482103 1.29796e-14 0.0125571)
(1.00376 -6.82698e-14 0.567474)
(0.963225 -3.81869e-14 0.603465)
(0.872819 9.26433e-14 0.61603)
(0.804838 4.8918e-14 0.60133)
(0.914192 3.65245e-14 0.632409)
(0.728526 -7.37603e-14 0.545658)
(0.769018 9.46173e-14 0.585678)
(0.65131 1.98894e-14 0.498378)
(0.604915 -3.35718e-14 0.452515)
(0.571381 0 0.401619)
(1.12367 -1.86934e-14 0.365876)
(1.11145 0 0.395502)
(1.10203 0 0.445322)
(1.12558 0 0.325772)
(1.08312 -4.6491e-14 0.499537)
(1.13161 7.33485e-15 0.296003)
(1.12529 0 0.256324)
(1.10079 -7.98863e-14 0.155052)
(1.12008 1.05602e-13 0.190958)
(1.08266 6.461e-14 0.12087)
(1.12392 9.78124e-14 0.225282)
(1.06567 -1.32321e-13 0.087671)
(1.05662 0 0.546215)
(1.049 -1.26976e-13 0.0597608)
(1.01731 0 0.0243137)
(1.02758 -1.24455e-13 0.0321195)
(1.01296 -1.24342e-13 0.0199443)
(1.00496 0 0.00817486)
(1.00137 1.24473e-13 0.00457165)
(0.5389 0 0.352644)
(0.515532 0 0.304845)
(0.495724 0 0.257067)
(0.477706 1.00039e-13 0.210757)
(0.461795 -6.72935e-15 0.1656)
(0.449569 -1.05996e-13 0.1152)
(0.441909 -6.63716e-15 0.0753668)
(0.46055 6.77906e-15 0.0141469)
(1.02122 -7.65821e-14 0.583296)
(0.981525 9.96194e-21 0.621072)
(0.857032 -9.40862e-14 0.652001)
(0.814995 -4.80585e-14 0.630923)
(0.934835 -3.79754e-14 0.655657)
(0.69817 4.59991e-14 0.580289)
(0.746788 -4.54566e-14 0.632341)
(0.656302 2.55212e-14 0.520576)
(0.594147 -7.2835e-14 0.476849)
(0.548959 0 0.442595)
(1.13907 1.8207e-14 0.374922)
(1.1277 3.50204e-14 0.415985)
(1.11849 -6.94051e-14 0.442448)
(1.10766 0 0.463175)
(1.14064 -9.29241e-14 0.343232)
(1.10631 0 0.505219)
(1.08315 6.34998e-14 0.544368)
(1.14436 -7.68803e-15 0.304307)
(1.1398 1.20637e-13 0.272157)
(1.11405 -5.33345e-14 0.164878)
(1.09375 1.84705e-14 0.128423)
(1.13545 8.7173e-14 0.201457)
(1.07538 1.47611e-13 0.0946882)
(1.13604 -9.89303e-14 0.23366)
(1.0576 0 0.0652324)
(1.05309 3.73193e-14 0.58365)
(1.04851 0 0.0381213)
(1.02216 1.53126e-17 0.0279901)
(1.03491 1.25773e-13 0.0349441)
(1.00845 0 0.0102437)
(1.00312 0 0.00567212)
(0.999901 -1.24487e-13 0.00187595)
(0.524353 -2.80749e-14 0.381162)
(0.498636 0 0.333293)
(0.478081 -1.10111e-13 0.278509)
(0.456732 1.15325e-13 0.231545)
(0.439075 1.01706e-13 0.181885)
(0.426468 9.79717e-14 0.126473)
(0.417502 1.13258e-13 0.0753923)
(0.436644 -1.14826e-13 0.0120623)
(1.01609 8.17838e-14 0.622995)
(0.973631 8.33807e-14 0.664324)
(0.877302 0 0.680736)
(0.798058 -1.44881e-14 0.662146)
(0.921802 0 0.69841)
(0.703166 -4.92478e-14 0.612086)
(0.659221 -8.96976e-14 0.555836)
(0.759326 1.37761e-14 0.652739)
(0.604015 3.19736e-14 0.537586)
(0.542901 2.78661e-14 0.463978)
(0.592396 6.51564e-14 0.506193)
(0.504789 -1.64716e-22 0.418927)
(1.15745 6.95705e-14 0.394899)
(1.14906 0 0.42872)
(1.13179 -7.5296e-14 0.462021)
(1.15685 7.11625e-14 0.351447)
(1.1266 2.8335e-14 0.515259)
(1.10156 6.57551e-14 0.556549)
(1.15929 0 0.317745)
(1.15257 -1.22124e-13 0.279173)
(1.12701 -2.61171e-21 0.170747)
(1.10536 4.88739e-15 0.134276)
(1.14871 -7.86e-14 0.211133)
(1.08587 -1.44483e-13 0.0995031)
(1.15062 6.74776e-15 0.246593)
(1.06696 2.05559e-15 0.0695848)
(1.07236 -1.13544e-13 0.597116)
(1.04044 0 0.0362965)
(1.06081 0 0.0449297)
(1.02076 -1.51714e-17 0.0151126)
(1.02814 -2.43146e-16 0.0183975)
(1.01208 0 0.013152)
(1.00257 1.24443e-13 0.00345109)
(1.0011 1.24475e-13 0.0016629)
(0.484885 0 0.363814)
(0.46056 -1.752e-15 0.312067)
(0.441393 9.39498e-14 0.263996)
(0.421296 -1.1989e-13 0.217778)
(0.406569 -1.01299e-13 0.168117)
(0.39692 -1.17411e-13 0.114617)
(0.388906 -1.1668e-13 0.0733774)
(0.413595 1.17758e-13 0.0152016)
(1.03623 6.36505e-14 0.637509)
(0.995154 -7.24177e-14 0.680539)
(0.859771 -6.26006e-15 0.725515)
(0.815858 1.10619e-13 0.697693)
(0.946557 0 0.720056)
(0.673098 0 0.644233)
(0.632713 -3.68843e-14 0.58276)
(0.733409 0 0.703189)
(0.602973 -4.06596e-14 0.561878)
(0.530437 -3.25648e-14 0.490425)
(0.547833 0 0.520526)
(0.478674 -7.94358e-14 0.428624)
(1.17548 -9.05403e-14 0.403481)
(1.17156 0 0.449779)
(1.14292 5.8341e-14 0.470809)
(1.1767 0 0.370475)
(1.12914 -3.25996e-14 0.55415)
(1.14316 9.78773e-21 0.518822)
(1.10265 -1.10121e-13 0.59562)
(1.17449 0 0.325637)
(1.16749 0 0.290868)
(1.11665 2.3417e-14 0.139439)
(1.14103 7.82102e-14 0.175923)
(1.09759 2.61339e-22 0.10769)
(1.16338 0 0.224327)
(1.16081 -9.36512e-14 0.194161)
(1.07748 -2.09537e-15 0.0750264)
(1.16122 0 0.252912)
(1.06981 6.03524e-14 0.637481)
(1.04101 -1.2452e-13 0.0266201)
(1.07005 9.9244e-16 0.0476825)
(1.01526 0 0.0152997)
(1.03511 2.43031e-16 0.0220262)
(1.01242 1.2439e-13 0.00315475)
(1.00506 -1.24442e-13 0.00393598)
(1.00006 -1.24485e-13 -5.66955e-05)
(0.466442 -1.13841e-13 0.405756)
(0.439228 1.67158e-15 0.340506)
(0.422401 1.37108e-14 0.290116)
(0.400093 -4.97109e-14 0.239727)
(0.384647 0 0.183942)
(0.374037 0 0.126236)
(0.362926 6.09189e-14 0.0732551)
(0.388787 0 0.0142893)
(1.03069 -2.24101e-14 0.682098)
(0.984819 0 0.728453)
(0.886277 -1.37547e-14 0.753595)
(0.788566 -1.01025e-13 0.736488)
(0.926944 1.35679e-14 0.771325)
(0.680637 -5.48726e-14 0.683903)
(0.634845 4.36824e-21 0.61461)
(0.749102 0 0.723785)
(0.566022 -6.86103e-14 0.582433)
(0.482627 0 0.495173)
(0.546004 0 0.551044)
(0.471269 1.37882e-13 0.454578)
(1.19817 -5.25977e-14 0.424481)
(1.19297 0 0.45862)
(1.16149 4.70672e-14 0.474387)
(1.19482 0 0.376925)
(1.14907 -3.30323e-14 0.563871)
(1.1619 3.33789e-14 0.525477)
(1.12421 3.62415e-14 0.606282)
(1.19306 6.18603e-14 0.341059)
(1.1809 0 0.296654)
(1.13197 -4.18432e-14 0.143797)
(1.14815 9.46779e-14 0.161767)
(1.10974 -1.09746e-14 0.112002)
(1.17874 0 0.23194)
(1.17684 2.24852e-14 0.200314)
(1.08808 -2.09659e-15 0.0788412)
(1.17494 1.3382e-13 0.26449)
(1.09312 0 0.649813)
(1.04922 1.24219e-13 0.0289165)
(1.05885 9.75421e-16 0.029722)
(1.07953 1.25293e-13 0.0531392)
(1.022 0 0.00497931)
(1.03398 1.2424e-13 0.00363085)
(1.01657 0 0.00230388)
(1.00808 -1.24442e-13 0.00291504)
(0.419732 8.9291e-14 0.374695)
(0.404643 -6.81146e-15 0.318701)
(0.378529 0 0.267912)
(0.363457 6.27552e-14 0.215819)
(0.352319 -1.03889e-15 0.163427)
(0.342696 -7.86874e-15 0.110847)
(0.339304 -7.42405e-14 0.0727737)
(0.36887 0 0.0148054)
(1.0552 0 0.695751)
(1.01063 0 0.743829)
(0.855119 0 0.803062)
(0.815176 -5.7052e-14 0.771145)
(0.956399 1.3757e-14 0.792117)
(0.643671 1.00281e-13 0.711345)
(0.597951 6.13373e-14 0.64723)
(0.714784 0 0.79032)
(0.565728 6.33852e-14 0.613497)
(0.475652 0 0.53243)
(0.494235 6.23445e-14 0.571656)
(0.417208 -8.59477e-22 0.474725)
(1.22306 6.54642e-14 0.431091)
(1.21318 0 0.46373)
(1.18202 -1.13691e-13 0.505582)
(1.21861 0 0.392743)
(1.15453 -1.76129e-14 0.601368)
(1.17467 0 0.556239)
(1.12731 0 0.646772)
(1.20955 -6.47421e-14 0.347475)
(1.199 0 0.310098)
(1.12328 -6.01416e-14 0.119256)
(1.16522 -4.19395e-14 0.16347)
(1.10052 6.278e-15 0.085234)
(1.18862 -1.25917e-13 0.2698)
(1.19382 0 0.23643)
(1.19452 0 0.206797)
(1.09327 0 0.693717)
(1.04743 0 0.00321102)
(1.06843 0 0.0305933)
(1.09016 -1.24583e-13 0.055883)
(1.02769 -1.2432e-13 0.00389284)
(1.03974 0 0.00301334)
(0.396801 -4.25844e-14 0.402264)
(0.374853 7.17711e-15 0.34406)
(0.355334 -6.43346e-14 0.289684)
(0.340587 0 0.239758)
(0.329703 1.0825e-15 0.179866)
(0.318218 2.40932e-14 0.124251)
(0.314916 -7.12856e-14 0.0732802)
(0.346189 0 0.0129796)
(1.05212 0 0.742961)
(1.00212 1.25125e-14 0.798252)
(0.888941 7.36402e-14 0.831346)
(0.774901 9.87076e-14 0.820521)
(0.93556 -1.3935e-14 0.851547)
(0.65572 2.99387e-14 0.764973)
(0.606769 0 0.677747)
(0.732644 1.46128e-14 0.810331)
(0.521214 0 0.636854)
(0.427295 3.88936e-14 0.53536)
(0.492408 -6.97331e-14 0.60273)
(0.385667 -1.22869e-14 0.431527)
(0.413975 -7.44104e-14 0.495047)
(1.24615 0 0.442557)
(1.22134 0 0.507241)
(1.23707 0 0.469572)
(1.20114 1.69305e-20 0.50985)
(1.24034 0 0.399219)
(1.17799 1.72858e-14 0.608789)
(1.19543 0 0.562807)
(1.15316 0 0.655493)
(1.22938 -6.82821e-14 0.355734)
(1.21475 -1.63365e-14 0.315504)
(1.1378 7.42638e-14 0.123087)
(1.15461 -1.64431e-14 0.130356)
(1.18581 5.74999e-14 0.168681)
(1.11308 0 0.0886407)
(1.20405 -1.05351e-13 0.277638)
(1.20946 -1.18625e-13 0.246228)
(1.21365 0 0.215761)
(1.12149 2.10231e-14 0.704012)
(1.05923 0 0.00631653)
(1.07983 1.26054e-13 0.0334918)
(1.10213 -1.30591e-13 0.0607658)
(0.359346 5.82309e-14 0.371897)
(0.337852 6.16669e-14 0.316534)
(0.319853 -8.72178e-15 0.26316)
(0.303841 0 0.207308)
(0.295916 -1.74168e-14 0.156544)
(0.28935 0 0.108862)
(0.290751 7.44066e-14 0.0710144)
(0.325914 0 0.014531)
(1.08224 0 0.754567)
(1.03539 -7.26273e-14 0.811909)
(0.85136 -1.039e-13 0.899782)
(0.807267 4.81969e-14 0.86579)
(0.974904 0 0.870286)
(0.604375 -3.43463e-14 0.786207)
(0.558782 0 0.723427)
(0.71327 -1.67494e-14 0.886722)
(0.522386 0 0.685522)
(0.42492 -3.52579e-14 0.580806)
(0.446127 -6.56782e-14 0.621663)
(0.340517 1.66899e-14 0.448966)
(0.365619 1.78111e-14 0.512969)
(1.27147 -3.76762e-14 0.444125)
(1.2453 6.23519e-14 0.510366)
(1.26057 2.13077e-16 0.491779)
(1.21748 8.91778e-14 0.550164)
(1.26328 3.31326e-14 0.406934)
(1.1868 0 0.647729)
(1.20712 0 0.599093)
(1.15938 -4.08802e-14 0.697784)
(1.24745 8.97095e-14 0.361307)
(1.23185 -8.38916e-14 0.32168)
(1.12801 1.10903e-13 0.0950858)
(1.17104 0 0.135123)
(1.2 -8.28316e-14 0.175605)
(1.21919 1.21942e-13 0.282012)
(1.2267 9.2896e-14 0.249682)
(1.23192 2.15536e-14 0.219515)
(1.12464 2.2773e-14 0.749186)
(1.0686 0 0.0109501)
(1.09091 -1.25534e-13 0.0339147)
(1.11418 1.29541e-13 0.0637366)
(0.321415 0 0.392593)
(0.302909 6.3503e-14 0.335717)
(0.296977 5.6489e-14 0.278087)
(0.276986 8.05101e-14 0.229047)
(0.27236 9.29969e-14 0.175596)
(0.265283 0 0.122843)
(0.264955 7.79449e-14 0.0724459)
(0.302713 0 0.0124856)
(1.08316 0 0.806525)