/*--------------------------------*- C++ -*----------------------------------*\
  =========                 |
  \\      /  F ield         | OpenFOAM: The Open Source CFD Toolbox
   \\    /   O peration     | Website:  https://openfoam.org
    \\  /    A nd           | Version:  7
     \\/     M anipulation  |
\*---------------------------------------------------------------------------*/
FoamFile
{
    version     2.0;
    format      ascii;
    class       volScalarField;
    location    "9.997";
    object      Co;
}
// * * * * * * * * * * * * * * * * * * * * * * * * * * * * * * * * * * * * * //

dimensions      [0 0 0 0 0 0 0];

internalField   nonuniform List<scalar> 
192336
(
9.9958303e-06
2.9922619e-05
2.0577823e-05
3.4399496e-05
3.0823075e-05
4.9600982e-05
4.6641276e-05
5.3882942e-05
4.7763368e-05
4.8412568e-05
7.3164619e-05
5.2679353e-05
5.9429945e-05
7.4170915e-05
6.9249172e-05
8.4311606e-05
6.6748525e-05
8.0603778e-05
7.7742884e-05
7.0230407e-05
7.4401217e-05
7.0631213e-05
8.6589827e-05
0.00010542271
7.9177726e-05
7.5888353e-05
8.9461603e-05
9.184492e-05
7.6666544e-05
8.2395404e-05
8.6714703e-05
0.00012298222
8.2729387e-05
9.5978777e-05
8.7539135e-05
9.3776035e-05
0.00011268657
0.00010875855
9.4505143e-05
0.00010627958
9.0265848e-05
9.9014467e-05
0.00011677378
0.00014873677
9.8520794e-05
0.00010045612
0.00011016989
9.1120689e-05
0.00010333117
0.0001190813
0.00012233852
0.00010028477
0.0001019989
0.00011377556
8.9474049e-05
0.00010683566
0.00012336301
0.00015638615
9.9957006e-05
0.00010636318
0.00010075958
0.00011615742
8.5678613e-05
0.00010915916
0.00012419751
0.00012456183
0.000110596
0.00010666525
9.7764285e-05
0.00011779114
7.9733898e-05
0.00010973638
0.00012479188
0.00015478428
0.00011667601
0.0001103952
0.0001039696
9.2822726e-05
0.0001161782
7.1615257e-05
0.00010956408
0.0001186269
0.00013030422
0.00011238177
0.00014932126
9.8468179e-05
8.5519237e-05
0.00011605293
6.1783429e-05
0.00010771123
0.00011695718
0.00010914298
0.00010509645
0.0001118667
9.8192695e-05
9.0300377e-05
7.6099687e-05
0.00011525497
5.109086e-05
0.00010408966
0.00012081226
0.0001237747
0.00013302676
9.3649793e-05
0.00011539055
8.0209377e-05
6.4130996e-05
0.00011187899
3.8385173e-05
9.9091422e-05
0.00011877331
0.00015207914
9.4616909e-05
0.0001035045
8.1065131e-05
0.00012871141
6.7981341e-05
4.9992393e-05
0.00010715244
2.3445541e-05
9.1917288e-05
0.00010908276
0.00013491668
0.00010613926
8.0152419e-05
6.9816646e-05
5.4008962e-05
3.6133e-05
9.8862703e-05
9.871416e-06
8.3088289e-05
9.852609e-05
9.6696823e-05
7.9282087e-05
0.00012087318
7.2387991e-05
5.6342512e-05
4.046697e-05
2.2320306e-05
8.9718274e-05
1.0282908e-05
7.3049087e-05
9.0495645e-05
9.1934628e-05
6.3078504e-05
0.00011207182
0.00011148927
6.3569869e-05
3.9043673e-05
2.72236e-05
1.6138617e-05
7.9461181e-05
2.0695498e-05
6.2036279e-05
7.996089e-05
8.1149962e-05
7.1438108e-05
6.2525152e-05
8.0568677e-05
5.9505371e-05
3.1340587e-05
2.1536789e-05
2.0914529e-05
6.9844685e-05
2.6989672e-05
5.1721431e-05
7.2226674e-05
7.3684089e-05
5.3802322e-05
5.4869477e-05
4.2203929e-05
6.8893884e-05
4.4327665e-05
4.0872261e-05
2.7214986e-05
2.3889863e-05
2.8405363e-05
5.9190703e-05
3.0384433e-05
3.723766e-05
6.2090007e-05
6.3592897e-05
6.3264213e-05
3.9811312e-05
4.2928264e-05
6.2376281e-05
3.9842415e-05
3.5963922e-05
5.2003856e-05
3.0219791e-05
3.0620567e-05
3.2755753e-05
4.5743769e-05
3.267855e-05
1.8003178e-05
4.8715058e-05
4.8637009e-05
5.9231265e-05
3.7318762e-05
4.787017e-05
3.796441e-05
3.1131088e-05
3.2546095e-05
3.5580457e-05
3.4165422e-05
3.5640758e-05
2.7268405e-05
3.2870002e-05
1.2227389e-05
3.3192899e-05
3.5211637e-05
3.7316712e-05
4.7859736e-05
3.7189179e-05
3.678151e-05
3.0856707e-05
3.7908052e-05
3.302105e-05
3.8182663e-05
3.6815719e-05
3.5940779e-05
1.6677589e-05
3.1030873e-05
3.0134503e-05
2.0793915e-05
2.518677e-05
3.3385653e-05
3.6559751e-05
3.6575632e-05
2.8820419e-05
4.49528e-05
4.1047694e-05
3.8386164e-05
4.007519e-05
3.6654675e-05
3.3363484e-05
3.0181297e-05
2.7650271e-05
5.9363361e-05
2.8665203e-05
3.2391299e-05
3.8313847e-05
4.0873667e-05
4.3312735e-05
3.532125e-05
6.2447314e-05
5.8764511e-05
4.1776015e-05
4.748564e-05
3.8699935e-05
3.3844949e-05
2.9118185e-05
5.4718499e-05
2.3515844e-05
8.7101182e-05
5.1387469e-05
5.3586434e-05
5.5286564e-05
5.7066855e-05
5.9964681e-05
5.4170043e-05
5.2846394e-05
8.3645382e-05
3.543885e-05
5.9487742e-05
3.6157054e-05
2.9436517e-05
2.3801031e-05
7.8947988e-05
1.963173e-05
0.00010888222
7.4484495e-05
7.5151418e-05
7.2191314e-05
7.2326413e-05
7.435952e-05
7.3250834e-05
5.585048e-05
7.7308137e-05
4.3679727e-05
3.8134123e-05
6.5046e-05
3.2007963e-05
2.4021567e-05
1.8533653e-05
0.00010244416
1.6429509e-05
0.00012918859
9.6678338e-05
9.6440838e-05
9.0955424e-05
8.9132094e-05
8.8083323e-05
9.3392597e-05
9.2715873e-05
6.1920066e-05
4.5027356e-05
3.4836463e-05
0.00010378848
2.6005592e-05
1.8036928e-05
1.4545483e-05
0.00012530706
1.4450793e-05
0.00014808627
0.0001185386
0.00011649351
0.00010839299
0.00010420625
9.9671295e-05
0.00011237741
0.00011015194
8.5466453e-05
5.9386416e-05
4.5732483e-05
3.5108845e-05
0.00010721079
2.4213871e-05
1.6321993e-05
1.3926785e-05
0.00014500505
1.3935207e-05
0.00016474824
0.00013833066
0.00013482427
0.00012430932
0.0001181614
0.00011211416
0.00012979316
0.00012022601
8.4156357e-05
6.520612e-05
5.242982e-05
3.9590005e-05
0.00014992118
2.667411e-05
1.80591e-05
1.5251245e-05
0.00016348254
1.5335119e-05
0.00017833336
0.00015654176
0.00015084273
0.00013711644
0.00012878921
0.00012157211
0.00014466037
0.00012151737
8.6008898e-05
0.00011933763
7.2243666e-05
5.8711179e-05
4.4610351e-05
0.00014063919
3.0408772e-05
2.2661284e-05
1.9213738e-05
0.0001769961
1.910837e-05
0.00018911497
0.00016949303
0.00016194881
0.00014785826
0.00013843367
0.00012948547
0.00015516552
0.00012823886
9.1111614e-05
9.6392469e-05
7.8793726e-05
6.4481744e-05
5.009615e-05
0.00011321287
3.7098072e-05
2.9929227e-05
2.5520951e-05
0.00018824499
2.4830087e-05
0.00019618674
0.0001811465
0.00017289921
0.000157319
0.00014883427
0.00013925175
0.00016513066
0.00013822233
0.00010602386
9.7351764e-05
8.4215567e-05
7.0346923e-05
5.678878e-05
0.00013013031
4.6131385e-05
3.8730139e-05
3.349404e-05
0.00019602396
3.1080057e-05
0.00020141709
0.00018980004
0.000181882
0.00016486318
0.00015565277
0.00014631596
0.00017374376
0.00015349369
0.0001116211
0.00011983528
0.00010198274
8.9088252e-05
7.650591e-05
6.5176791e-05
0.00019900759
5.6303003e-05
4.8305353e-05
4.1507374e-05
0.00020160615
3.7749879e-05
0.00020538598
0.00019656366
0.00018916202
0.00016904335
0.00015924931
0.00015216696
0.00017954367
0.00015552894
0.00011312883
0.00011831499
0.00019325855
0.00010542218
9.4352652e-05
8.3596172e-05
7.4602191e-05
0.00020356611
6.7572581e-05
5.6299984e-05
4.9838281e-05
0.00020659737
4.3639175e-05
0.00020726849
0.00020283711
0.00019549102
0.0001739211
0.00016149927
0.00015348333
0.00018472873
0.00014625213
0.00013885667
0.0001324364
0.00012321625
0.00011005707
9.9770276e-05
9.1573877e-05
8.5366347e-05
0.00014947692
7.7220441e-05
6.2938833e-05
5.6620509e-05
0.00020952389
4.928606e-05
0.00020900051
0.00020702736
0.00020245736
0.00018793759
0.00017054076
0.00015281619
0.00019596922
0.00012676672
0.00011147127
0.00014104051
0.00014551312
0.000126133
0.0001137806
0.00010583146
0.00010171921
9.8555169e-05
0.00013615818
7.3552748e-05
6.8540345e-05
6.3093642e-05
0.00021211179
5.4850749e-05
0.00021107248
0.0002118764
0.00021287127
0.00021008581
0.00018722467
0.00014315374
0.00021576606
0.00015956224
0.00014684876
0.00018662583
0.00019282659
0.00014036371
0.00012642381
0.00011730067
0.00011324613
0.00011610766
0.0001253043
0.00014496692
7.8297577e-05
7.4606567e-05
6.9049461e-05
0.00021584509
6.0431521e-05
0.00021260408
0.00022058004
0.00023301833
0.00024225917
0.00020274949
0.00024350347
0.00028086742
0.00017246174
0.00020024657
0.00015799395
0.0001557079
0.00016032909
0.00013375949
0.00012670076
0.0001214729
0.00012151025
0.00013793619
0.00011626071
0.00016041879
8.4617583e-05
8.4415864e-05
7.9719371e-05
7.4573331e-05
0.00021853332
6.6084778e-05
0.00021490016
0.00022404213
0.00023790609
0.00031368007
0.00017195926
0.00022267634
0.00018027042
0.00019125506
0.0001542791
0.00012333715
0.00013789845
0.00013329939
0.00012827361
0.00012563315
0.00012481864
0.00011581121
0.00016709027
9.3102007e-05
0.00010550067
8.8692923e-05
8.483865e-05
7.9760998e-05
0.00021993276
7.1618759e-05
0.0002174967
0.00022220345
0.00022099829
0.00018716232
0.00019834087
0.00020020618
0.00019330921
0.0001902789
0.00015735695
0.00013551751
0.00012229214
0.0001363424
0.00013043641
0.00012587432
0.00012117869
0.00017613619
9.5608677e-05
0.00010087963
0.00011513027
9.2896584e-05
8.9380852e-05
8.4514813e-05
0.0002212219
7.6872765e-05
0.0002225839
0.00022051628
0.00021301012
0.00020198163
0.00020987148
0.00020282622
0.00020223455
0.00020528439
0.0001792657
0.00012350942
0.00014902396
0.00018968565
0.00013909827
0.00013059152
0.00012860563
0.00019066471
9.8250498e-05
0.00010208263
0.00011088267
0.00012530432
9.6117445e-05
9.3724876e-05
8.9016103e-05
0.00022612257
8.1684502e-05
0.00022934817
0.00022510883
0.00022011992
0.00021476158
0.00022053952
0.00021224762
0.00021912891
0.00022623155
0.00020804374
0.00016536805
0.00019244167
0.00015349964
0.00025053047
0.00014020024
0.0001413402
0.00021295298
0.00010163492
0.00010429717
0.00011090804
0.00012306184
0.00014171914
0.0001004725
9.8124305e-05
9.2919121e-05
0.0002322558
8.6169548e-05
0.00023803095
0.00023225837
0.0002296085
0.00022606773
0.00023676945
0.00022964358
0.00023818957
0.00025007255
0.00021262383
0.00018148116
0.00016811622
0.00015528385
0.00017004804
0.00016337578
0.00023379991
0.00010749983
0.00010900509
0.00011431883
0.00012489827
0.00014329495
0.00016989341
0.00010546551
0.00010186758
9.6344416e-05
0.00024192804
9.0458138e-05
0.00024838298
0.00024357015
0.00024298205
0.0002410567
0.00025278267
0.00024726432
0.00025946433
0.00027450278
0.00019714813
0.00017162646
0.00016786968
0.00018221378
0.00018911486
0.00025137362
0.00011767991
0.00011501988
0.00012222707
0.00013137127
0.00014890626
0.00017294819
0.00022340183
0.00011033827
0.00010470831
0.00010028091
0.0002529683
9.3750574e-05
0.00025925057
0.00025549619
0.0002559834
0.00025544447
0.00026987168
0.00026614925
0.00028102821
0.0003081918
0.00035152276
0.00023343076
0.00016226832
0.0002745011
0.00020046202
0.00035305787
0.00012924017
0.00013468916
0.00012433608
0.000143389
0.00015844675
0.00017830784
0.00020751038
0.00031149219
0.00011330786
0.00010849146
0.00010339534
0.00026585466
9.6932608e-05
0.00026868584
0.00026967167
0.00027090369
0.00027110071
0.0002871537
0.00028499729
0.0003002407
0.00032946483
0.00026208562
0.00042291418
0.00017160902
0.00030258016
0.00014868395
0.00015034022
0.00014421373
0.0001590994
0.00013167696
0.00017203546
0.00018908924
0.00020725876
0.00020548076
0.00021653342
0.00021417456
0.00011740392
0.00011177765
0.00010743367
0.0002785767
9.9074604e-05
0.00027673952
0.00028318531
0.0002854745
0.00028677989
0.00029983452
0.00029891607
0.00031467342
0.00031383082
0.00031094299
0.00024331267
0.0002260517
0.00024978942
0.0001770615
0.00016988593
0.0001618571
0.00018806408
0.0001244525
0.00020215202
0.00021802261
0.00023892662
0.00035365326
0.00026034376
0.00012310646
0.00011743422
0.0001102463
0.00028914475
0.0001011511
0.00028325249
0.00029414819
0.00029690124
0.00029865482
0.0003106321
0.00031102459
0.00031601711
0.00028811931
0.00023261896
0.00032105378
0.00028438891
0.00025617942
0.00032684039
0.00019679651
0.00020406074
0.00019451132
0.00019812345
0.0002158436
0.00014120261
0.00022690488
0.00023622649
0.0002675973
0.00027979137
0.00013203581
0.00012165636
0.00011314051
0.00029682406
0.00010280451
0.00028680038
0.0003016024
0.00030570271
0.00030859429
0.0003167742
0.00031763095
0.00030695319
0.000285565
0.00027181937
0.00038286663
0.00028937775
0.00031181706
0.00039602373
0.0002181923
0.00021290958
0.00022757507
0.0002501156
0.00024539912
0.00023714851
0.00017250214
0.00015343213
0.00023899569
0.00022276475
0.00026435258
0.00013869666
0.00012619782
0.00011541779
0.00030163985
0.00010386576
0.0002893745
0.00030604968
0.0003102366
0.0003135324
0.00031742778
0.00031555524
0.00030206374
0.00028779688
0.00028448218
0.00026606782
0.00027891814
0.0003053432
0.00038683116
0.00033571346
0.00022720913
0.00023818553
0.00020778025
0.00024572978
0.00027352819
0.0002500224
0.00027664403
0.00018189209
0.00016036239
0.00024276625
0.0002374336
0.00014448429
0.00013008969
0.00011692172
0.00030513774
0.00010436366
0.00029016752
0.00030934056
0.00031286683
0.00031505607
0.00031375834
0.00031089779
0.00029572423
0.00027781407
0.00027720137
0.00028911836
0.00026173074
0.00029952791
0.00032708841
0.00031325749
0.00024644117
0.00022815608
0.00025291349
0.00025639983
0.00029566977
0.00026329847
0.00019962465
0.00018235133
0.00016562644
0.00027871909
0.00037035313
0.00014884896
0.00013310955
0.00011817702
0.00030575699
0.00010396672
0.00028903307
0.0003096331
0.00031164218
0.00031237879
0.00030463796
0.00030159235
0.00028180262
0.00025853099
0.00025566817
0.00027857126
0.00022703782
0.00030621353
0.00032399985
0.0002964134
0.00025273399
0.00025859727
0.00023574437
0.0002602273
0.0002646994
0.00030068087
0.00027784787
0.00019797955
0.00018603407
0.00016987005
0.00038398951
0.0004330716
0.00015233983
0.00013564507
0.00011910288
0.00030562713
0.00010360199
0.00028695107
0.00030967145
0.00030903486
0.00030586083
0.00028344717
0.000282879
0.00026431615
0.00026907126
0.00022786596
0.00027071618
0.00028213898
0.00030316947
0.00033114584
0.00028747081
0.00026480783
0.00026462125
0.00026335677
0.00032751162
0.00026425826
0.00026467586
0.00029635901
0.00020595712
0.0002036552
0.00018962559
0.00017299973
0.00026863939
0.00015517284
0.00013768518
0.00012017167
0.00030286597
0.0001037076
0.00028543339
0.00030737605
0.00030569213
0.00029265148
0.00028136262
0.0002713184
0.00027751866
0.0002994019
0.00040789372
0.00027590408
0.00028710699
0.00033375417
0.00030109191
0.00031335888
0.00028563937
0.00026916886
0.0002810706
0.00026644374
0.00026461928
0.00026369798
0.00026138067
0.0002711869
0.00024795569
0.00022127734
0.00020655025
0.00019185002
0.00017512366
0.00037672323
0.00015743752
0.00013955888
0.00012159506
0.00029911091
0.00010516174
0.00028634489
0.00029645015
0.00033132314
0.00032506275
0.00036544906
0.00029103191
0.00028421616
0.00029159601
0.00037062197
0.00028194946
0.00027845633
0.00029886079
0.00029697148
0.00030811945
0.00028562372
0.00027272955
0.00026707522
0.00026449856
0.00026398158
0.00025181003
0.00026884335
0.00023487539
0.0002588011
0.000220555
0.00020747141
0.00019305412
0.00017671972
0.00028974142
0.00015929484
0.00014181074
0.00012462358
0.00031304656
0.00010864266
0.00028690268
0.00042710331
0.00047579866
0.0003948991
0.00038492559
0.00029484587
0.0002718346
0.00027465148
0.00029434436
0.00027871838
0.00027967186
0.00026410316
0.00029272074
0.00029811071
0.00028303352
0.00026765721
0.00026243664
0.00026348759
0.00026429757
0.00026605056
0.0002473664
0.0002310371
0.00026106429
0.00021969672
0.00020834698
0.00019455745
0.00017839886
0.00033159456
0.00016148293
0.00014576541
0.00012935626
0.00032642947
0.00011426549
0.00028354155
0.00044772887
0.00041411558
0.00044002214
0.00034411
0.00025785654
0.00026235587
0.00027206875
0.00027717667
0.0002667141
0.00026810555
0.00023592186
0.00028765726
0.00029570678
0.00027630836
0.00026213831
0.00025596311
0.00026996909
0.00030236816
0.00026305911
0.0002419545
0.00025461182
0.00023027424
0.00026275293
0.00022041205
0.00020986824
0.0001963835
0.00018062382
0.00038200723
0.0001648878
0.00015099826
0.00013752269
0.00030904076
0.00012179751
0.00027596658
0.00033257134
0.00029234906
0.00029428484
0.00026238454
0.00026795028
0.0002692959
0.00027011525
0.0002415772
0.00026076007
0.00039501057
0.00029120362
0.00030754905
0.00028118702
0.00025040503
0.00025525885
0.00028985669
0.00025395202
0.00025017178
0.00024009458
0.00025986524
0.00023148772
0.00026158597
0.00022295753
0.00021340308
0.000199896
0.0001839652
0.00030572643
0.00016963842
0.00016028047
0.00014869529
0.00027828982
0.00013175017
0.00027208628
0.00026633814
0.00026675709
0.00027012195
0.00026573784
0.00026791736
0.00026917186
0.0002679912
0.00030082455
0.00028555138
0.00039454321
0.00035327727
0.00029666782
0.00030331313
0.00029184778
0.00021366074
0.00026425104
0.00024036398
0.0002577297
0.00024912242
0.00024167557
0.0002646437
0.00023523275
0.00026494336
0.00022833267
0.00021910136
0.00020385144
0.00018811986
0.00027608919
0.00017850001
0.00017295574
0.00016168743
0.0002727856
0.00014522931
0.00027299107
0.00027183401
0.00026456767
0.00026546975
0.00026591731
0.00026926253
0.00027289645
0.00027531556
0.00031185363
0.00030135269
0.00032810977
0.00032748236
0.00029746005
0.00028323764
0.00030052159
0.00022810789
0.00022726745
0.00025813376
0.00026556798
0.00025117914
0.00024625893
0.00027358315
0.00024116725
0.0002850858
0.00023479588
0.00022424223
0.0002091061
0.00019365126
0.00024929271
0.00019136715
0.00018763869
0.00017764117
0.00027321776
0.0001620406
0.0002739089
0.00026963207
0.0002645751
0.00026680691
0.00026857139
0.00027089118
0.00027781681
0.00028408889
0.00029909753
0.00030703391
0.00029959565
0.0003019351
0.00028683626
0.00026481348
0.00029272618
0.00020687828
0.00034524388
0.00026582959
0.00025926071
0.00027548879
0.00025518524
0.00025141741
0.00028999007
0.00024758654
0.00032801468
0.00024123915
0.00023264434
0.00021477778
0.00020187599
0.00023033527
0.00020665383
0.00020410453
0.00019606381
0.00027381879
0.00018086944
0.00027720988
0.00027151125
0.00026829904
0.00027056378
0.00027122631
0.00027540777
0.00028204843
0.00028909365
0.00028312041
0.00029351515
0.0002844849
0.00028480649
0.00027359844
0.00025049527
0.00027941039
0.00024493077
0.00034903631
0.00026511967
0.00027400096
0.00026120215
0.00028943448
0.00025865974
0.00025707312
0.00031304894
0.00025539353
0.00025069728
0.00024250351
0.00019272045
0.00021721612
0.00023441494
0.00022384878
0.00022173443
0.0002152144
0.00027580397
0.00020050858
0.00028251191
0.00027397765
0.00027382134
0.00027658877
0.00027605013
0.00028123242
0.00028401936
0.00028615307
0.00027084896
0.0002827135
0.00027546594
0.00027293675
0.00026065294
0.00024693669
0.00026708139
0.00027026594
0.00036598288
0.00027053934
0.00026422536
0.00028538424
0.00026265924
0.00031004459
0.00026227121
0.00026400324
0.00036029623
0.0002645911
0.00026016711
0.00026750367
0.0002197287
0.00023761453
0.00025793364
0.00024034904
0.00024000346
0.00023406473
0.00028070173
0.00021964061
0.00028950241
0.00027930096
0.00027953335
0.00028383711
0.00028484543
0.00028762884
0.00029115131
0.00028449418
0.00026347951
0.00028258316
0.00028028703
0.0002696425
0.0002538215
0.00025503399
0.0002592793
0.00030341925
0.00043718968
0.00027858122
0.00026582688
0.00026356933
0.0003030687
0.00026362206
0.00033462774
0.0002663536
0.00027075584
0.00026955557
0.0002553214
0.00025416157
0.00022031878
0.0002464329
0.00025234205
0.00027645618
0.00025570737
0.00025589323
0.00025022465
0.00028774303
0.0002381747
0.00029916564
0.00028652199
0.00029023614
0.00029442289
0.00029368353
0.00029714945
0.00029819815
0.00029137954
0.00026563306
0.00029106961
0.00028823671
0.00027678023
0.0002550091
0.00025942924
0.000258422
0.0003286597
0.00034055374
0.00029337285
0.00026670568
0.00026138755
0.00026186109
0.00031861166
0.00026470568
0.00026990836
0.00027541939
0.00026715672
0.00021905259
0.00030573402
0.0002588939
0.00025788622
0.0002631582
0.00029318101
0.0002664424
0.00026729665
0.0002641283
0.00029838677
0.00025475102
0.0003106157
0.00029695217
0.00030009875
0.00030607926
0.00030386764
0.00030664165
0.00030425109
0.00029868429
0.00027590045
0.00029810857
0.00029702989
0.00028613529
0.00025363162
0.00024431451
0.0002622931
0.0003208802
0.00028440204
0.00027549326
0.00032170718
0.00025655884
0.00025819733
0.00026037739
0.00026417513
0.00027278811
0.00028478653
0.00022813386
0.00031783867
0.00027190861
0.00025862616
0.00026377419
0.00026884372
0.00030486165
0.00027260344
0.00027478471
0.00027405939
0.0003100148
0.00027013682
0.00032184934
0.00030904107
0.00031185281
0.00031779744
0.00031684066
0.00031160178
0.00030374615
0.00030412423
0.00028992676
0.00030843448
0.00030660011
0.00029674163
0.00024592468
0.00031432797
0.00028509238
0.00028845972
0.00040706364
0.00023065754
0.00030571752
0.00025452164
0.00025522729
0.00025726828
0.0002639487
0.00027832314
0.00032323641
0.00031964943
0.00023023943
0.00026492767
0.00025375138
0.00025657888
0.00026396511
0.00026968135
0.0003022093
0.00027308691
0.00027731803
0.00028106086
0.00032215687
0.00028322561
0.00033605561
0.00032083277
0.00032697366
0.00033487172
0.00032753502
0.00030552508
0.00031079935
0.00031606491
0.00030095798
0.00031974458
0.00031270066
0.0003038084
0.00043292577
0.00032148898
0.00037376301
0.00031548844
0.00024629896
0.00035863508
0.00027668078
0.00025332258
0.00025576023
0.00025339873
0.00025124833
0.00025540228
0.00026441767
0.00028315899
0.00026965285
0.00024735302
0.00024097735
0.00024253411
0.00024412367
0.00025200198
0.00025925538
0.00026334626
0.0002930026
0.00026890082
0.00027737065
0.00028748971
0.00033836348
0.00029342865
0.00034916692
0.00033804449
0.00034734238
0.00035591765
0.0003370835
0.0003140173
0.00035268563
0.00033822872
0.00030679279
0.00032231431
0.0003204993
0.00031182523
0.00040992253
0.00031267791
0.00033954579
0.00031496157
0.00028897799
0.00027597886
0.00027869109
0.00029257028
0.00025929551
0.00028697981
0.00024814335
0.0002477994
0.00025305104
0.00026160088
0.0002524442
0.0002399551
0.00022650077
0.00022686234
0.00022903131
0.00023628786
0.00024459927
0.00024843385
0.00025273048
0.00030408752
0.00026213885
0.00027738888
0.00029270412
0.00035306093
0.00030135938
0.00036237865
0.00035473849
0.00040212919
0.00038984326
0.00054011259
0.00036249216
0.00037777032
0.00043253971
0.00035036266
0.00030680346
0.00032695085
0.00034417466
0.00032588449
0.00033179881
0.00031442697
0.00031778135
0.00030784431
0.00035022394
0.00023309248
0.00026882007
0.00036005952
0.0002794622
0.00024760577
0.00024274603
0.00024449326
0.00024872725
0.00024276152
0.00022288839
0.00023651202
0.000209717
0.00021375499
0.00022008627
0.00022829265
0.00023236018
0.0002330261
0.00023957181
0.00032105346
0.00025841278
0.00027921381
0.00029710084
0.00036900014
0.00030738831
0.00037461842
0.00037586882
0.00054112102
0.00040826507
0.00057230944
0.00044773644
0.00040394615
0.00053975154
0.00068182847
0.00034356394
0.00030822821
0.0003574344
0.00037841851
0.00036624957
0.00030540863
0.00032181444
0.00031441378
0.00028783804
0.00035512496
0.00028762568
0.00029564576
0.00025559302
0.0002381163
0.00023917366
0.0002406881
0.00023672369
0.0001796448
0.00023212618
0.00023438349
0.0001978918
0.00020515223
0.0002123932
0.00021733762
0.00021461652
0.00021497208
0.00023199819
0.00030238597
0.00025854282
0.0002821144
0.00030737264
0.00038020364
0.00030842515
0.00038501541
0.00038675073
0.00042342671
0.00042871959
0.00041613441
0.0004290187
0.00071341499
0.00041602908
0.00038001153
0.00056484332
0.00038119828
0.00041521189
0.00057109132
0.00031783059
0.0003289069
0.00030823815
0.00030348214
0.00034218668
0.00027670893
0.00027934317
0.00021415914
0.00023698439
0.0002360185
0.00023267438
0.00022904732
0.0001824556
0.00024166499
0.00023052422
0.00019187114
0.00019868332
0.00020349611
0.00019983525
0.00019330662
0.00020006069
0.00023142026
0.00025181171
0.00026103156
0.00029656879
0.00031727875
0.00038920988
0.00030764313
0.00039661084
0.0003959215
0.00041614804
0.00040618192
0.00039176838
0.00049813178
0.00058179146
0.00041449962
0.00039677662
0.00056299151
0.00033442852
0.00040322746
0.0004333231
0.00035750437
0.00032707665
0.00030275397
0.000301803
0.00033426227
0.00027959283
0.00031607228
0.00025362316
0.00024040382
0.00023838584
0.00023351761
0.00027397119
0.00026200415
0.00018155515
0.0001702966
0.00023541249
0.00022536733
0.0001870224
0.00019062907
0.00018832687
0.00018227366
0.00018672003
0.00020481077
0.00023892531
0.00031387938
0.00028121855
0.00031396203
0.00032322851
0.00039946459
0.00030543084
0.00040597578
0.00041034392
0.00039932095
0.00042157059
0.00044113789
0.00043721966
0.00041384372
0.00041013938
0.00042049994
0.00030797221
0.00042014077
0.00042538498
0.0004115693
0.00031540655
0.00031867468
0.00032300185
0.00037257368
0.00032545709
0.00037837435
0.00036177292
0.00019918971
0.00025633487
0.00024368814
0.00024317908
0.00023869796
0.00021938844
0.00017368557
0.00017567853
0.0001925714
0.00022159476
0.0002205967
0.00017849653
0.0001776114
0.00018392318
0.00019179958
0.00018762476
0.00021664996
0.00026516933
0.00034886103
0.00030366022
0.00032655803
0.00032483147
0.0004074794
0.00030571215
0.00041482438
0.00041099752
0.00041221314
0.00044022208
0.00043324654
0.00042377112
0.00042036384
0.00042418088
0.00036031661
0.00032336444
0.00042578353
0.00039979114
0.00036912426
0.0003244563
0.00034395807
0.00035052806
0.00046781236
0.00036405628
0.00029828702
0.00033291128
0.00023604129
0.00031590181
0.00031971911
0.00026186074
0.00021449597
0.00020149364
0.00017137045
0.00016441859
0.00016558762
0.00018459065
0.00020567351
0.00022343725
0.00016920637
0.00018956998
0.00020219193
0.0001912764
0.00019946759
0.00024787587
0.00029292744
0.0003251506
0.00032322653
0.00033528875
0.00032765594
0.00041537435
0.0003091141
0.00042528752
0.00042304845
0.00043631853
0.00044250979
0.00043868375
0.00042886071
0.00043380158
0.00043274446
0.00033097552
0.0005068706
0.00042414963
0.00039056991
0.0003837978
0.00034432733
0.0003208897
0.00034706513
0.00035681128
0.00021933151
0.00022074425
0.00026766281
0.00019558183
0.00018921291
0.00015459649
0.00016395531
0.00015243243
0.00016294283
0.00017572389
0.00017011918
0.00024308151
0.00019182352
0.00021183139
0.00022770823
0.0003240031
0.00023203895
0.00023650279
0.00028351841
0.00031899959
0.00047864194
0.00033926033
0.00034109495
0.00033052248
0.0004274892
0.00031532107
0.00043423151
0.00043758348
0.00044578385
0.0004511311
0.00045142189
0.00044316293
0.00044263057
0.00043876265
0.00054963746
0.00036614691
0.00049891822
0.0004238363
0.000423594
0.00034135312
0.00034195532
0.00031670916
0.00024452586
0.00033447699
0.00019488574
0.00032134004
0.00017604748
0.00018115251
0.00014346367
0.00013885867
0.00015606308
0.00015625142
0.00018784015
0.00017292243
0.00019188636
0.00021402258
0.00023447485
0.00024084036
0.00027064527
0.00023810677
0.00027623773
0.00031417263
0.00033991969
0.00034020979
0.00038180006
0.00035060382
0.00034535699
0.00033544174
0.00043781507
0.00032501377
0.00044411543
0.00044806871
0.00045897055
0.00045910574
0.00046185417
0.00045272039
0.00045107763
0.00044198269
0.00057459768
0.00038740562
0.00045419328
0.00043388857
0.00045211371
0.00036210732
0.00034026104
0.0004097861
0.00022699463
0.00029665245
0.00023083162
0.0002183558
0.00025357382
0.00014305381
0.00018326054
0.00012497283
0.00013344348
0.00014640079
0.00015242001
0.00018096412
0.00020797139
0.00018398881
0.00014656927
0.00023795534
0.00024692971
0.00019928038
0.00024632279
0.0002729372
0.00031131871
0.00033866683
0.00035534494
0.00034318398
0.00028769615
0.00035780172
0.00035325718
0.00034219109
0.00044867326
0.00033571298
0.00045361191
0.00046028406
0.00046569844
0.00046921463
0.00047217796
0.00046214161
0.0004555761
0.00044640732
0.00047410839
0.00038665544
0.00041674862
0.00044397758
0.00045875407
0.00036706364
0.0003689351
0.00048727505
0.00033088022
0.00027156235
0.00032544035
0.00029873147
0.00027967935
0.00018909535
0.00013635948
0.00020748263
0.00011241693
0.00013502202
0.00012627904
0.00017111489
0.00015637162
0.00019919957
0.00022381361
0.00022495586
0.0001424552
0.00030190691
0.00025817647
0.00024028008
0.00019634793
0.0002728021
0.00030879225
0.0003429469
0.00035250907
0.00036244449
0.00028452041
0.00036751944
0.00035910398
0.00034950522
0.00045935064
0.00034713456
0.00046354124
0.00046892939
0.00047526931
0.00048029167
0.00047737094
0.00046701157
0.00045857892
0.00045017187
0.0004359169
0.00038640441
0.00040426505
0.00044877389
0.00044085434
0.00037517367
0.00039596241
0.0003258258
0.00035961434
0.00028080219
0.00029144507
0.00029532214
0.00019531532
0.00017286002
0.0002330231
0.00010186517
0.00012276493
0.00016029245
0.00012386192
0.00018900545
0.00016718372
0.00021015724
0.00022730439
0.0002085455
0.00021044029
0.00026787263
0.00023377383
0.00021787462
0.00030516055
0.00034562436
0.00034469296
0.00034890469
0.0003727611
0.00030740728
0.00037298653
0.00036651478
0.00035992547
0.00046928713
0.00035944132
0.00047090013
0.00047774985
0.00048546555
0.00048577044
0.00048078813
0.00047022116
0.0004609421
0.00045233427
0.00041916734
0.00039221526
0.00039829142
0.000443375
0.00042958598
0.00038831252
0.00039117097
0.00042217145
0.00028778626
0.00024400162
0.00026000131
0.00021472995
0.00016805612
0.00015378038
0.00017281424
9.4546927e-05
0.0001075865
0.00014782981
0.0001822525
0.00012582106
0.00019908904
0.00021231806
0.00025678828
0.00020952895
0.00029551022
0.00026276823
0.00023716205
0.00022123382
0.00034833353
0.00036374756
0.00029864481
0.00036602177
0.00038227008
0.00044998472
0.00038093352
0.00037644952
0.00037270462
0.000477197
0.00037011577
0.00047808245
0.00048702154
0.00049163375
0.00048914064
0.00048396719
0.00047242039
0.00046209458
0.00045006046
0.00041054719
0.00039387727
0.00039866201
0.00043761985
0.0004216762
0.00039620121
0.00040254054
0.00026243836
0.00026892302
0.00020238662
0.00016179989
0.00014266823
0.00016904727
0.00013248711
9.2238367e-05
8.9632834e-05
0.00013093329
0.00017241924
0.0001982372
0.00020270215
0.00022569539
0.00019954322
0.00032784232
0.00028785022
0.00026459768
0.00024298884
0.00022035091
0.00045117171
0.00039731419
0.00036028373
0.00031635749
0.00038726981
0.00039247435
0.00039740567
0.00028764795
0.00038866967
0.00038646287
0.00038447954
0.000485333
0.00038130797
0.00048454615
0.00049341054
0.00049530692
0.00049398098
0.00048618882
0.00047408457
0.00046151611
0.00044616262
0.00040779015
0.00039086348
0.00039959928
0.0004301695
0.00041890148
0.00040267917
0.00024673746
0.00027168395
0.00015121245
0.00016189258
0.00011198807
0.00020552009