/*--------------------------------*- C++ -*----------------------------------*\
  =========                 |
  \\      /  F ield         | OpenFOAM: The Open Source CFD Toolbox
   \\    /   O peration     | Website:  https://openfoam.org
    \\  /    A nd           | Version:  7
     \\/     M anipulation  |
\*---------------------------------------------------------------------------*/
FoamFile
{
    version     2.0;
    format      ascii;
    class       volScalarField;
    location    "9.997";
    object      Ma;
}
// * * * * * * * * * * * * * * * * * * * * * * * * * * * * * * * * * * * * * //

dimensions      [0 0 0 0 0 0 0];

internalField   nonuniform List<scalar> 
192336
(
0.0007458684
0.002062214
0.0028207184
0.0037865734
0.0039992076
0.0063511414
0.0057844649
0.0045613199
0.0083396176
0.0065547829
0.0049402702
0.008112341
0.0098291128
0.008107282
0.0096995767
0.0089994438
0.01118029
0.009458869
0.011034268
0.010303831
0.012673212
0.010894516
0.012558042
0.011408331
0.014006587
0.012191205
0.013920036
0.012611321
0.01214841
0.01527054
0.013542838
0.013698928
0.01525372
0.013551242
0.016262133
0.014502629
0.013943979
0.01474854
0.016617111
0.014655862
0.016844455
0.015419803
0.014775368
0.015381893
0.016124414
0.017500463
0.015524989
0.017140671
0.016252413
0.015562064
0.015902493
0.016967942
0.017787286
0.016351366
0.017072639
0.016929031
0.016353504
0.016582928
0.016821692
0.017455841
0.017779427
0.017033384
0.016575789
0.017439933
0.017034943
0.017126876
0.017171156
0.017537665
0.017453721
0.017595424
0.015602759
0.017722343
0.017606911
0.017428148
0.017385668
0.017606768
0.017317003
0.016766992
0.017869649
0.014146453
0.017764429
0.017825786
0.017524634
0.017171956
0.01731028
0.016752028
0.015609579
0.017938672
0.012264871
0.01754154
0.017893102
0.017451718
0.016711221
0.017222475
0.017646963
0.015697604
0.013950742
0.01782403
0.010110168
0.017090486
0.01777995
0.017295917
0.016531874
0.015678108
0.016809376
0.014044382
0.011824113
0.017538513
0.0074548248
0.01635727
0.017393266
0.016831261
0.01682433
0.015985143
0.013900306
0.01669812
0.011904366
0.0092094733
0.016915634
0.0043985209
0.01530718
0.016672453
0.016121326
0.015498941
0.014292898
0.011619535
0.0094405475
0.0062683846
0.016027417
0.0015907549
0.013998745
0.015949329
0.015737494
0.014269286
0.015237529
0.011974465
0.0089732632
0.0067042978
0.0035040159
0.014888106
0.0020065818
0.012417837
0.014907192
0.014569533
0.012207869
0.014004401
0.014035561
0.0094846883
0.0070411012
0.004405208
0.0019818
0.013441769
0.0039993995
0.010533661
0.013483421
0.013160795
0.011852012
0.0097058739
0.012456267
0.0067935104
0.0048110619
0.0037030202
0.003082917
0.011700699
0.0054094335
0.0084327961
0.011788178
0.011654849
0.010337575
0.0074088643
0.0091699533
0.011005887
0.0064599261
0.0055072764
0.0044637598
0.0040159687
0.0045361015
0.0095885704
0.0064125811
0.0057620386
0.0097594308
0.0097179451
0.0084835344
0.0071845135
0.0075382826
0.0091143742
0.0065810009
0.0055260471
0.005347307
0.0048018105
0.0049225567
0.005566019
0.006989944
0.0070054448
0.0026355948
0.0072461401
0.0070822891
0.0062037863
0.0057825642
0.0065461735
0.0054260805
0.0052847444
0.0055833921
0.0056878322
0.0056611233
0.0062662139
0.0038439023
0.0071826566
0.00077471066
0.0044344808
0.0045642069
0.0056826416
0.0054972312
0.0066995221
0.0046489779
0.0062909284
0.0063297272
0.006829995
0.0064343991
0.0063112883
0.0065189029
0.0013104537
0.0068773827
0.0046722307
0.00202408
0.0029958626
0.0049958045
0.0056203006
0.0064250625
0.0039994182
0.0084808495
0.0072539816
0.0076412233
0.0071344622
0.0065406608
0.0062609799
0.0043269593
0.0061760824
0.0093865108
0.0036256363
0.0041457283
0.0055903092
0.0064528949
0.0072637247
0.0047479382
0.0081482423
0.0078407669
0.0079704678
0.0079087909
0.0073169166
0.0062077083
0.0055631076
0.0084119419
0.0054195995
0.014129489
0.0073035466
0.0072909618
0.0071730759
0.0076047255
0.0081322898
0.007034084
0.0092865459
0.010498985
0.0084017741
0.010405097
0.0069364018
0.0054806275
0.0048424228
0.012717093
0.0046555005
0.018247148
0.011396429
0.011115878
0.0098649846
0.00971248
0.0097793994
0.010365254
0.0097693743
0.011331206
0.0094837224
0.0081495427
0.012184301
0.0062946563
0.0048191878
0.0040822362
0.016897089
0.0040111959
0.021869824
0.015528595
0.015140169
0.013508008
0.01272295
0.012486602
0.01427248
0.014281772
0.01131667
0.010188255
0.0079065985
0.014506859
0.0057463077
0.0040900555
0.0034265955
0.020823858
0.0035360427
0.025212507
0.019571614
0.019085122
0.01718568
0.016166664
0.014857498
0.018129688
0.016937342
0.01392913
0.012152218
0.009951352
0.0076897398
0.016579363
0.005234469
0.0034966136
0.0030037
0.024379165
0.0032746888
0.028122828
0.023193838
0.022584967
0.020617902
0.019291894
0.017784566
0.021671461
0.019189543
0.015722779
0.012515992
0.010268844
0.007641384
0.018853795
0.0050403095
0.0033443397
0.0029491767
0.027462892
0.0034391776
0.030535807
0.026293092
0.025473832
0.023551362
0.022102398
0.020695763
0.024588961
0.021733719
0.015372378
0.017917894
0.013371165
0.010724736
0.008012669
0.020824778
0.0053134382
0.0039161193
0.0035831932
0.030002314
0.0041677225
0.032363366
0.028836536
0.027824638
0.02587015
0.024476044
0.022867719
0.026918562
0.023209977
0.016903335
0.018655871
0.014137546
0.011351606
0.0087673868
0.021216474
0.006385042
0.0052064945
0.0047698781
0.031957812
0.0053707331
0.03367197
0.030838987
0.029687111
0.027607265
0.026284515
0.024694378
0.028685983
0.024590285
0.020335284
0.017337061
0.014689088
0.012253622
0.0099232183
0.022996905
0.0080508827
0.0068938218
0.0062773065
0.033403526
0.0068145057
0.034565655
0.032378213
0.03113478
0.02886461
0.027688066
0.026249512
0.029980083
0.025936643
0.02000699
0.022139877
0.017893633
0.01539321
0.013256656
0.011357325
0.024658893
0.0099337871
0.0086884727
0.0079285175
0.034411837
0.0082332347
0.035087448
0.033508186
0.032226844
0.029678182
0.028471471
0.027256317
0.030895409
0.026560039
0.022022391
0.02083309
0.023855629
0.018144221
0.0161785
0.014361298
0.012936454
0.025437154
0.011825837
0.01040331
0.0095502909
0.035035904
0.0095896902
0.035361483
0.034267891
0.033046538
0.030410948
0.029116183
0.027852674
0.03162825
0.027049455
0.023940091
0.022749712
0.02057622
0.018819962
0.016963959
0.015555238
0.01453551
0.025276644
0.013596056
0.011945166
0.011015612
0.035378442
0.010956783
0.035534847
0.034713483
0.033601059
0.031144837
0.029845815
0.028731258
0.03220361
0.027059232
0.023951951
0.023871995
0.022597719
0.021179131
0.019313482
0.017735999
0.016665529
0.016174524
0.02521492
0.014876914
0.013285886
0.012411607
0.035535234
0.012410437
0.035667456
0.034949415
0.034022533
0.031897303
0.030530769
0.029207933
0.032749686
0.027409325
0.025088976
0.02381847
0.025063335
0.023201305
0.021462585
0.019704481
0.018501446
0.017615159
0.017374985
0.025976592
0.016279002
0.014406152
0.013752212
0.035574594
0.013998951
0.035894659
0.034965482
0.034210142
0.032010417
0.031261031
0.030207714
0.033135245
0.027891551
0.028804907
0.025835715
0.024385091
0.025254207
0.023354833
0.02163699
0.020135152
0.019234493
0.018002677
0.018699072
0.026692116
0.018113849
0.016759215
0.015448744
0.015106786
0.035804194
0.015719885
0.036244517
0.035184536
0.034437603
0.03339675
0.031650799
0.030684248
0.029070802
0.029538366
0.026646671
0.024586133
0.025944247
0.023527821
0.021700821
0.020480592
0.019577949
0.019677706
0.027805576
0.018433259
0.019688667
0.017439336
0.016557424
0.016491357
0.036173069
0.01750026
0.036716613
0.035464873
0.03440276
0.032868362
0.032296153
0.03089497
0.030317953
0.030558484
0.027796352
0.025538999
0.027072111
0.023498638
0.021891107
0.020625017
0.020605206
0.029098258
0.018763688
0.019587118
0.020643402
0.018202182
0.017694657
0.017950165
0.036596936
0.019337377
0.037455692
0.035888667
0.034723269
0.033425272
0.033138124
0.031659662
0.031898549
0.032591796
0.029779992
0.026946854
0.025513162
0.029300839
0.023654124
0.02199044
0.022034178
0.031096951
0.019347299
0.019881601
0.020541424
0.022165587
0.018998951
0.01894179
0.019581844
0.037206856
0.02108689
0.038536742
0.036482234
0.035362398
0.034237476
0.034528669
0.03316021
0.03403706
0.035302996
0.032801165
0.029206245
0.027833231
0.025896217
0.032658972
0.023889621
0.024312245
0.033820367
0.020093141
0.020422066
0.020947733
0.022435677
0.024820376
0.020032958
0.020401412
0.021123458
0.03823304
0.022770893
0.040014727
0.037574286
0.036634444
0.035667041
0.036530706
0.035338706
0.036781337
0.03860735
0.036383544
0.030406262
0.028130191
0.026830984
0.035061074
0.027965178
0.037322405
0.021276215
0.02132709
0.021876405
0.023290482
0.025679757
0.028998877
0.021385977
0.021824663
0.022673902
0.039704255
0.024357338
0.041850583
0.039112425
0.038325807
0.03752634
0.039013778
0.038046084
0.039786144
0.041799727
0.040217885
0.034273026
0.030897657
0.03978945
0.032775335
0.040879578
0.022925094
0.022886888
0.023457288
0.0248624
0.027281175
0.030354584
0.034335376
0.022883312
0.023218314
0.024268604
0.041609044
0.025809281
0.043731316
0.041094218
0.040418276
0.039776056
0.041634891
0.040875611
0.042692067
0.044236166
0.043377985
0.039091637
0.033868676
0.043559087
0.037318046
0.043694852
0.025009141
0.025765995
0.024863854
0.027219661
0.029563568
0.032464907
0.035679361
0.038962626
0.024454763
0.024749895
0.02581054
0.043736862
0.027091121
0.045395072
0.043311924
0.042696525
0.042181178
0.044131077
0.043514681
0.045137039
0.046026807
0.044311433
0.045497596
0.042031053
0.045944597
0.041537626
0.028533919
0.027507404
0.030138542
0.027084149
0.032376444
0.03510689
0.03782392
0.040649642
0.042026103
0.040769078
0.026272541
0.026233269
0.027379456
0.045865071
0.028214326
0.046805971
0.045535025
0.044979419
0.044527255
0.046321475
0.045740654
0.047141365
0.047293379
0.046070514
0.045904648
0.046898166
0.046071465
0.03329446
0.031491524
0.030291462
0.035422284
0.029443259
0.037892031
0.04034285
0.042753382
0.045183376
0.04515054
0.028053071
0.02791466
0.028717522
0.04773171
0.029226384
0.047920938
0.047450214
0.047016767
0.046624162
0.048099775
0.047556079
0.048426798
0.047938461
0.04686617
0.047737882
0.048103478
0.046230004
0.047618057
0.036388963
0.038378677
0.034307731
0.033091603
0.040622129
0.03197874
0.042733561
0.044543638
0.045777345
0.046913034
0.029925353
0.029306663
0.02983586
0.04917091
0.030058578
0.048675177
0.048882095
0.048602509
0.048312447
0.049438264
0.049071792
0.049105064
0.048184951
0.047676687
0.048400129
0.048724289
0.047495285
0.04805994
0.041035312
0.039102023
0.043014889
0.036449153
0.037667851
0.044871481
0.036872162
0.03357862
0.046272457
0.047008957
0.048128139
0.031599904
0.030519892
0.030605523
0.050205841
0.030601727
0.049101975
0.049905359
0.04971384
0.049516608
0.050371602
0.05004017
0.049269715
0.048723534
0.048536903
0.048485836
0.048528271
0.04833732
0.048008291
0.048186945
0.04319546
0.045125497
0.040976136
0.046533295
0.042197573
0.0477546
0.042099678
0.038342111
0.035348395
0.048499852
0.049209077
0.032946234
0.031453734
0.030959875
0.050861367
0.030738459
0.049180664
0.050625547
0.050439764
0.050297308
0.050704392
0.050225374
0.049453587
0.048676951
0.04866676
0.048509452
0.048179731
0.048835448
0.048388745
0.048517117
0.046853885
0.044900528
0.048077144
0.048913487
0.045237113
0.049443755
0.043235433
0.039743866
0.036697191
0.04949411
0.049831381
0.03396688
0.032020717
0.030839914
0.051127985
0.03050215
0.04902744
0.051015973
0.050762057
0.050596869
0.050645468
0.050216012
0.04919723
0.048198668
0.048332628
0.048222942
0.047810447
0.048354883
0.049260692
0.048126501
0.048113843
0.049263219
0.046499236
0.049913897
0.050051865
0.046680461
0.049574849
0.044455411
0.040917571
0.03783518
0.049705619
0.050589499
0.034607885
0.032198467
0.030705884
0.05111051
0.030271906
0.048700174
0.051112315
0.050752047
0.050488898
0.050219377
0.049872389
0.048593769
0.047705691
0.047369662
0.047947095
0.047002049
0.04850244
0.049699279
0.048072613
0.048852156
0.050285751
0.050687145
0.048181244
0.050833161
0.050534426
0.048680572
0.04784264
0.044722143
0.041815228
0.038576405
0.050178925
0.03527968
0.032546305
0.030552811
0.050792234
0.03010913
0.048182982
0.05082829
0.050308788
0.050047401
0.049355612
0.049168779
0.047998611
0.047356294
0.047452245
0.04771554
0.047337613
0.04698767
0.048743742
0.049591897
0.048100577
0.050519806
0.049680281
0.051354058
0.051428168
0.051239722
0.050152151
0.050135
0.050007189
0.047844417
0.045276081
0.042434661
0.039251946
0.050488681
0.035891363
0.032854492
0.03076515
0.050226658
0.030456931
0.047647589
0.05013445
0.04979312
0.049144092
0.048285799
0.048229455
0.047493575
0.046802536
0.046494224
0.047711967
0.047278065
0.04678273
0.048722396
0.049649015
0.048063927
0.051006838
0.051561186
0.051840868
0.051682112
0.05079662
0.051353906
0.049604046
0.051385718
0.04763327
0.045527453
0.042921266
0.039814327
0.05057047
0.036546636
0.033566064
0.031489065
0.04955288
0.031497998
0.04726562
0.049608485
0.049019565
0.047949518
0.048320523
0.047474704
0.047020839
0.046786273
0.04661038
0.047741975
0.046838524
0.047657059
0.048593607
0.049891959
0.047968189
0.052044292
0.0520864
0.05203726
0.051311202
0.052260275
0.050978915
0.049330954
0.052343361
0.047718307
0.04576766
0.043328806
0.040463584
0.050876148
0.037408581
0.034782837
0.033047439
0.04889074
0.033295804
0.04695443
0.048818296
0.048513018
0.047521599
0.047659776
0.04667827
0.046768851
0.046461336
0.046439709
0.047959474
0.047282421
0.04782041
0.048894546
0.05014426
0.048233062
0.052589693
0.052244218
0.051838713
0.050776085
0.052913336
0.050660223
0.052171507
0.049296104
0.053033837
0.047749012
0.046068514
0.04396853
0.041269512
0.050476691
0.038632007
0.036652099
0.035522434
0.04819509
0.036317228
0.046665093
0.047870735
0.046796771
0.046434906
0.046675288
0.046567601
0.046630354
0.046821708
0.048282754
0.047504844
0.048692038
0.049210922
0.05037387
0.048671558
0.052732188
0.051957324
0.051348109
0.05313641
0.051925806
0.050601034
0.05299245
0.049351866
0.053493673
0.048074736
0.046706322
0.044803351
0.042451812
0.051027046
0.040449352
0.039463242
0.03934555
0.047543348
0.039594438
0.046510895
0.047094438
0.046223424
0.046149459
0.046232919
0.046557234
0.0468963
0.047052061
0.048884538
0.048270642
0.048625074
0.048522353
0.049782553
0.050868895
0.049344983
0.052358164
0.051530319
0.053061787
0.052851073
0.051841722
0.050728557
0.053618305
0.049660896
0.053566254
0.048679245
0.047642247
0.046028437
0.044209339
0.051137001
0.043297533
0.043524936
0.04336898
0.047130596
0.044305473
0.046474822
0.04676204
0.04592424
0.045959017
0.046346241
0.046835134
0.047660304
0.047785562
0.049932189
0.048838451
0.049441265
0.049400219
0.050511892
0.051047569
0.050244146
0.051996035
0.052794415
0.052817423
0.05360403
0.0519137
0.051002538
0.053869854
0.050293206
0.053516177
0.049656332
0.048882069
0.047804375
0.046921949
0.051717692
0.04745385
0.047796762
0.048589027
0.046872724
0.05049433
0.04665943
0.046501781
0.046094471
0.046186521
0.046618752
0.047569082
0.048699129
0.048680838
0.050394827
0.04976575
0.050075271
0.050031478
0.050880617
0.051532677
0.05070731
0.052448507
0.053431062
0.05359697
0.052826129
0.053968582
0.052150561
0.051609761
0.053979295
0.051241323
0.053469901
0.050839573
0.050647039
0.05038063
0.050843018
0.052193821
0.05190337
0.052908976
0.054915788
0.046857636
0.0571164
0.047124464
0.046607307
0.046485047
0.046655385
0.047388195
0.048595791
0.049942941
0.049785337
0.051149019
0.05060568
0.051205784
0.051002703
0.051404889
0.052029681
0.051327982
0.05335424
0.054070357
0.053536304
0.053954225
0.053090177
0.054226906
0.052688359
0.052479465
0.053899861
0.052489493
0.052395214
0.052991756
0.053956039
0.055261299
0.053040664
0.056873159
0.058793025
0.061520846
0.047101196
0.064497457
0.047871941
0.046958158
0.047321836
0.047493279
0.048430046
0.049921245
0.051285446
0.0509734
0.051843827
0.051746911
0.052425293
0.051968097
0.051929012
0.05282306
0.051873641
0.05421837
0.054454517
0.053937385
0.05374046
0.054257922
0.05353544
0.054297594
0.053339618
0.0536415
0.054156404
0.053990586
0.054382523
0.055205257
0.057706913
0.059989388
0.053980977
0.062127936
0.064863189
0.068488493
0.047779846
0.072239722
0.049008166
0.047700458
0.048440895
0.04860041
0.049816665
0.0514052
0.052759795
0.052278818
0.052862691
0.053130948
0.053884052
0.053210972
0.05266393
0.053946277
0.052713316
0.054665873
0.05494515
0.054250141
0.054041156
0.053924291
0.054436852
0.053902744
0.054478199
0.05419345
0.054906352
0.055457934
0.05656143
0.057374606
0.059642477
0.061734566
0.064407794
0.054633586
0.067255394
0.0710544
0.075404537
0.048902635
0.079634328
0.05054266
0.048798718
0.049868265
0.050040152
0.051428052
0.053069038
0.054441005
0.053819642
0.054148022
0.054745914
0.055505398
0.054651991
0.053814173
0.055008862
0.053933118
0.055245266
0.054862119
0.054435575
0.054149478
0.054028227
0.054110336
0.054755625
0.054299517
0.055017917
0.055995173
0.056940513
0.058109433
0.060356661
0.062538634
0.065167608
0.068489302
0.055491822
0.07229379
0.076752739
0.081917509
0.050404216
0.086216005
0.05231642
0.050239439
0.05153302
0.051756546
0.053223847
0.054869198
0.056363227
0.055626139
0.055756256
0.056567872
0.057316174
0.056344304
0.055165122
0.056034638
0.055446295
0.055670997
0.05480862
0.054235987
0.054912945
0.054008833
0.054022693
0.054160619
0.054682889
0.055728167
0.056796931
0.057789864
0.059141124
0.061953971
0.064359447
0.068264288
0.07234744
0.05622965
0.076523373
0.08178538
0.087371982
0.05217313
0.091430422
0.054297726
0.051959525
0.053407257
0.053683512
0.055109106
0.056889439
0.058581889
0.057632303
0.057533081
0.05849618
0.059262265
0.058192061
0.056788987
0.057229519
0.057108382
0.055756978
0.054889897
0.054185416
0.054637554
0.05389304
0.053777465
0.054106022
0.055017565
0.056108213
0.057059182
0.056828331
0.057876254
0.059821016
0.061934973
0.066072615
0.070875597
0.075262947
0.056749076
0.079838775
0.085748646
0.091292879
0.054166135
0.094594747
0.056383118
0.053907103
0.055373866
0.055712725
0.05712335
0.059067892
0.060775764
0.059718079
0.059351092
0.060521587
0.061277264
0.060136032
0.058347555
0.057995588
0.058021455
0.058733276
0.056066088
0.054682741
0.055306944
0.054428425
0.053667694
0.053308017
0.05331773
0.053933352
0.054948167
0.055908185
0.055252002
0.055239257
0.057016283
0.058794476
0.062372186
0.067514351
0.072375806
0.07654842
0.057392691
0.081927173
0.088370668
0.093834223
0.056276968
0.095801332
0.058479662
0.055967917
0.057473126
0.057830824
0.059185643
0.061747837
0.062936189
0.061805017
0.061245807
0.062588894
0.063254404
0.062065016
0.059547541
0.058942439
0.059218835
0.060308687
0.056684704
0.055019805
0.055762997
0.054065899
0.052884316
0.053976783
0.052547369
0.052684228
0.053434682
0.054392267
0.053399046
0.052458565
0.054023061
0.055426716
0.058077856
0.062976783
0.068252495
0.0721998
0.076565038
0.058069749
0.083022238
0.08973524
0.09468082
0.058391213
0.095838952
0.060554058
0.058064232
0.059659346
0.059873514
0.061463262
0.062650079
0.063914626
0.064563647
0.063826574
0.063045018
0.064523909
0.065106069
0.063842358
0.060509887
0.059757411
0.060472811
0.061924925
0.057004003
0.054906965
0.056219629
0.054168088
0.053074493
0.052041538
0.05158123
0.051861625
0.052620324
0.051408363
0.050859725
0.050056896
0.052111655
0.053989542
0.05815226
0.06349113
0.067681422
0.071007071
0.076401769
0.058705191
0.083552467
0.08996177
0.094250478
0.060416248
0.094702158
0.062533033
0.060074673
0.061685772
0.061618186
0.063057931
0.063835329
0.064763388
0.065466358
0.06687615
0.065822671
0.064462623
0.066365392
0.066812811
0.065538088
0.061997571
0.061493222
0.060683179
0.06334012
0.057296101
0.055317962
0.053661221
0.052077906
0.050745732
0.050458438
0.05075424
0.049354114
0.048712175
0.047836985
0.047726538
0.050291274
0.053555399
0.058651425
0.063245692
0.06619977
0.069952157
0.076326178
0.059339637
0.083512431
0.089782861
0.09356192
0.062379169
0.092536775
0.064508049
0.061965657
0.063410789
0.065075729
0.065490475
0.066461511
0.0679662
0.067092791
0.067630858
0.066271358
0.0679611
0.067898248
0.06694266
0.063182428
0.062528418
0.061295377
0.064594371
0.056745069
0.054865352
0.052867098
0.050388963
0.049328874
0.049032522
0.04731979
0.045963055
0.046508411
0.045818556
0.045439931
0.049263158
0.05408802
0.058853512
0.062278213
0.064707261
0.069250143
0.076055707
0.059202749
0.083737171
0.089580713
0.092604218
0.064451454
0.089997442
0.066440257
0.064026352
0.066642342
0.066037816
0.067377483
0.06923747
0.068321427
0.068759617
0.069102663
0.067903024
0.066507143
0.069152632
0.068919464
0.064237989
0.062980463
0.061447451
0.065695267
0.056493538
0.058372481
0.054407981
0.051493236
0.048517802
0.047589276
0.045588284
0.044022149
0.04235274
0.045024765
0.042771658
0.043560531
0.043486397
0.049726217
0.05450575
0.05872474
0.061013084
0.06340775
0.068880297
0.077158749
0.060139869
0.084166422
0.08949257
0.091039081
0.066482956
0.087658918
0.068236667
0.06779055
0.068536956
0.069501204
0.070821953
0.069750215
0.070160863
0.070399151
0.068271095
0.067304351
0.070356266
0.069840368
0.064684308
0.063389224
0.06206503
0.066199367
0.056350483
0.058079071
0.053143493
0.055640543
0.049466425
0.046677484
0.048518587
0.044599447
0.041882113
0.039920156
0.040797149
0.045234656
0.0386367
0.041453699
0.042311297
0.050218885
0.055002302
0.057996187
0.059576677
0.063462786
0.070637689
0.078580965
0.059713867
0.084551354
0.088793159
0.088655067
0.068280893
0.085618947
0.069901063
0.069631125
0.070650859
0.071853351
0.072548554
0.071294636
0.071732441
0.071814395
0.069231631
0.067893271
0.071634496
0.070883957
0.064639009
0.064047515
0.061637691
0.067375338
0.057036377
0.05817207
0.051290758
0.054182234
0.049289772
0.046762428
0.047923727
0.04480296
0.039599474
0.03765954
0.037484924
0.040773897
0.045820758
0.035737703
0.039945881
0.042433989
0.051161581
0.054967701
0.056650014
0.057797963
0.063448019
0.072896307
0.079386156
0.058873443
0.08439827
0.087135182
0.086184789
0.070085454
0.084114541
0.071500313
0.071591315
0.072810344
0.073811818
0.074442565
0.073062549
0.073344878
0.073161117
0.069777974
0.068089023
0.072703299
0.071547933
0.065375582
0.063815481
0.060753259
0.055590648
0.057309659
0.05165556
0.04715577
0.045969479
0.037752469
0.035539021
0.03674466
0.03438671
0.041553894
0.046985656
0.033294558
0.039259853
0.043707313
0.051855911
0.054405889
0.054885029
0.056406176
0.058701674
0.066765492
0.073967081
0.079645561
0.058392479
0.083750208
0.084863472
0.084013536
0.071903667
0.083402174
0.073051624
0.073515066
0.074880847
0.075766382
0.076118283
0.074739176
0.074701384
0.074272999
0.070119989
0.066889127
0.069013498
0.073415736
0.071976413
0.065541887
0.062758106
0.059535127
0.054060432
0.056546815
0.049372726
0.04558496
0.036790951
0.033998699
0.033061398
0.037388909
0.031329332
0.042886997
0.048085364
0.031639683
0.040952815
0.051975977
0.053058676
0.052649233
0.053394099
0.060535569
0.068354871
0.074583161
0.080016973
0.058712544
0.056574818
0.082551761
0.082690455
0.082498305
0.073683767
0.083692306
0.074810181
0.075486284
0.076829033
0.077435761
0.077535286
0.076128752
0.075800662
0.075027176
0.070471562
0.066514615
0.068639397
0.073705019
0.071787917
0.064701148
0.061789326
0.059808685
0.052154541
0.054469434
0.047801552
0.045418023
0.042708808
0.036467191
0.033338918
0.033163978
0.029879341
0.038672297
0.028881024
0.044437333
0.048555267
0.030529602
0.038009813
0.050769885
0.050824274
0.049761637
0.055325029
0.062649678
0.069671329
0.075710503
0.079886772
0.058310518
0.055750865
0.08108693
0.081208041
0.082107905
0.075594478
0.085103412
0.076470385
0.077330898
0.078487378
0.078844546
0.078669557
0.077239056
0.076564393
0.075357612
0.069783971
0.065457302
0.06794854
0.073673017
0.07179139
0.06346611
0.061316285
0.059033798
0.051262084
0.053894905
0.045535049
0.0489756
0.043434456
0.040881793
0.033659977
0.031924113
0.02927383
0.034451927
0.027055377
0.040413576
0.027239417
0.04542235
0.048122099
0.029650968
0.036431473
0.049521157
0.048073076
0.051447852
0.048612952
0.057652068
0.064769216
0.071662997
0.076402967
0.078434231
0.055827977
0.079689383
0.080790889
0.082864717
0.077380883
0.087406947
0.07799984
0.078942928
0.079877216
0.079977909
0.079504277
0.078022212
0.077033275
0.075506246
0.0695464
0.064284591
0.066968517
0.073762382
0.071528008
0.062387175
0.060198116
0.057034694
0.051270905
0.053466642
0.042614421
0.047047062
0.039328738
0.032331909
0.030700342
0.025743215
0.030391671
0.036478229
0.024817032
0.04172876
0.026382806
0.04605676
0.047721247
0.035134966
0.047121879
0.053443748
0.048056858
0.046987941
0.060592556
0.06693641
0.072105448
0.07582567
0.077515497
0.054631888
0.078985654
0.081446049
0.08507648
0.078964895
0.090258173
0.079325463
0.08032332
0.08101395
0.080833941
0.080157125
0.078605928
0.077396757
0.075751828
0.068883927
0.063265069
0.066028605
0.073672899
0.070922693
0.061494525
0.058519326
0.056264241
0.049167889
0.051692033
0.044484276
0.038609285
0.028199851
0.032140619
0.026818988
0.022609977
0.026421575
0.032633127
0.038640055
0.023233659
0.043002818
0.045813556
0.036871927
0.044950685
0.056086887
0.050746167
0.046972137
0.045369791
0.063188911
0.06824017
0.070064961
0.074450594
0.076671334
0.054627846
0.079103169
0.083277498
0.08823473
0.080298298
0.093383534
0.080474872
0.081482244
0.081880005
0.081514118
0.080676883
0.079096947
0.077689394
0.075805735
0.067979663
0.062022961
0.064983244
0.073145716
0.069989218
0.06000269
0.057369272
0.047088196
0.049887476
0.04136417
0.02896186
0.024081078
0.03333049
0.023072649
0.020128164
0.022580927
0.02838901
0.03530463
0.041099838
0.043092243
0.039576834
0.044051944
0.0587053
0.052815907
0.048907331
0.04596916
0.044522261
0.0640871
0.06549457
0.072733728
0.069008336
0.074345235
0.076667445
0.055992457
0.052061243
0.080422776
0.086121944
0.091788932
0.081423871
0.097066044
0.081356077
0.0824139
0.082594067
0.082033138
0.080891112
0.079401777
0.077689292
0.075384864
0.066798683
0.063822513
0.060511646
0.072366651
0.069017362
0.058673213
0.044485606
0.047205213
0.025165767
0.030136555
0.019241399
0.036925911
0.018848437
0.018844758
0.023707744
0.031385841
0.037883749
0.042219465
0.042060222
0.041804226
0.061052705
0.055778935
0.051103519
0.048080944
0.046839581
0.045833292
0.063865999
0.069159479
0.072265485
0.065302423
0.074147512
0.077616227
0.054409196
0.057633633
0.049967063
0.082872282
0.08963161
0.095364695
0.082364746
0.099580907
0.082004706
0.083186419
0.083095968
0.082204305
0.080732015
0.079351214
0.0773475
0.074681978
0.065937109
0.061780887
0.059498661
0.071419067
0.067801078
0.044997087
0.026801707
0.020489299
0.031461389
0.01534488
0.039883107
0.034423653
0.015216052
0.018767817
0.027063728
0.034578395
0.039122215
0.043972146
0.058475667
0.054087259
0.050780456
0.049049599
0.04823651
0.047410407
0.061466758
0.066255538
0.069044598
0.071804064
0.063484041
0.074604416
0.079708332
0.052372608
0.056188125
0.047808242
0.086012631
0.093282057
0.098023742
0.083146739
0.10266911
0.082471228
0.083705365
0.083223893
0.08211124
0.080130313
0.078931411
0.076806401
0.0738348
0.064305721
0.060701886
0.058050495
0.070342737
0.066136941
0.04302782
0.023346423
0.02769937
0.015802737
0.034571885
0.011891428
0.038161043
0.014931344
0.022787712
0.030546176
0.037008287
0.041410793
0.045106269
0.05717388
0.053897172
0.051808396
0.050449886
0.049769375
0.047811614
0.060244785
0.066984001
0.064778726
0.069013918
0.07221339
0.062611277
0.076268195
0.082433504
0.054525164
0.050500986
0.045808932
0.089288601
0.095807088
0.10122424
0.083666335
0.10545224
0.082614095
0.083889797
0.083119995
0.081652853
0.079251115
0.078574315
0.075581238
0.072724979
0.062955141
0.061423241
0.059142887
0.056542469
0.068747983
0.065472065
0.040904631
0.024908364
0.019320566
0.031875772
0.011236831
0.036301328
0.010595594
0.013173108
0.026804768
0.018698377
0.034953757
0.040344666
0.04615027
0.057133355
0.054681789
0.052987746
0.052001551
0.050543842
0.049327907
0.060161872
0.067426498
0.065346783
0.064169886
0.069638321
0.073650427
0.062686185
0.078644381
0.085356623
0.053012383
0.048493559
0.044048438
0.091773166
0.099172565
0.10404676
0.083931966
0.10744072
0.082505363
0.08382539
0.082741796
0.080782724
0.078110951
0.077437175
0.074415207
0.070957602
0.062902754
0.059296877
0.057199209
0.055463933
0.066954404
0.063827316
0.039305842
0.022551769
0.026432028
0.01458061
0.035031624
0.02948792
0.0090153704
0.010695449
0.015602473
0.022291193
0.033245802
0.040732979
0.045515075
0.057932237
0.056177268
0.054956997
0.053459594
0.051910489
0.0484008
0.060941838
0.065941596
0.068460415
0.0650548
0.064355487
0.070915457
0.07573018
0.063543984
0.081307465
0.088197495
0.051002438
0.0468033
0.042342457
0.094800796
0.10191002
0.1058735
0.083930877
0.10863061
0.082271228
0.083516244
0.082043325
0.079431919
0.077163652
0.072447456
0.074803887
0.069089361
0.061234307
0.059525139
0.057053
0.053496438
0.065423744
0.062967267
0.038120747
0.019435967
0.024682513
0.011056506
0.033532593
0.02945009
0.0064716787
0.011097261
0.017606211
0.029298399
0.040644417
0.044637364
0.059595878
0.058281272
0.056640156
0.05601351
0.051900633
0.050332711
0.062774331
0.066034427
0.067196875
0.070001423
0.065352881
0.065413776
0.072932494
0.078112913
0.065466179
0.08412295
0.090867025
0.049348886
0.045042829
0.041148414
0.097521025
0.10369301
0.10673562
0.083715872
0.10955182
0.081819258
0.082785433
0.080548569
0.077734311
0.073579492
0.070476668
0.075567273
0.067323269
0.061285281
0.057252914
0.05556633
0.051726189
0.063786552
0.061299256
0.036783349
0.015884107
0.022454397
0.0084111985
0.032745057
0.027965616
0.0053688449
0.014784597
0.022382369
0.035230615
0.039722589
0.061910569
0.06074689
0.060091981
0.057599549
0.054700181
0.048411419
0.065185941
0.066498171
0.067562201
0.06886958
0.072379728
0.066767283
0.067482421
0.075740109
0.081328835
0.06789886
0.086713888
0.093887881
0.047589039
0.043868653
0.039524025
0.099701846
0.10463299
0.10726167
0.083097001
0.11086796
0.081191653
0.08163568
0.079490202
0.077540192
0.071782157
0.074112779
0.068843637
0.075454007
0.065819617
0.059274962
0.057144355
0.053771111
0.049916116
0.062928466
0.060549246
0.035943244