/*--------------------------------*- C++ -*----------------------------------*\
  =========                 |
  \\      /  F ield         | OpenFOAM: The Open Source CFD Toolbox
   \\    /   O peration     | Website:  https://openfoam.org
    \\  /    A nd           | Version:  7
     \\/     M anipulation  |
\*---------------------------------------------------------------------------*/
FoamFile
{
    version     2.0;
    format      ascii;
    class       volScalarField;
    location    "9.997";
    object      p;
}
// * * * * * * * * * * * * * * * * * * * * * * * * * * * * * * * * * * * * * //

dimensions      [1 -1 -2 0 0 0 0];

internalField   nonuniform List<scalar> 
192336
(
206.09713
206.10025
206.20026
206.08683
206.19663
206.06748
206.14953
206.14403
206.0992
206.06544
205.99226
206.01367
205.96231
206.00539
205.94754
205.96045
205.87303
205.82537
205.8669
205.88358
205.73847
205.8263
205.75092
205.8078
205.61972
205.75457
205.63659
205.6519
205.73852
205.52126
205.55933
205.61642
205.51826
205.61881
205.40913
205.41838
205.52257
205.48484
205.46562
205.47638
205.36935
205.30773
205.41117
205.4302
205.3429
205.3906
205.36718
205.38781
205.21201
205.3074
205.29948
205.32701
205.41934
205.27152
205.47761
205.16118
205.21636
205.28754
205.26129
205.37596
205.50752
205.23465
205.65149
205.15461
205.19745
205.23073
205.36618
205.49993
205.6845
205.2329
205.92788
205.22346
205.21479
205.30116
205.52548
205.39328
205.68561
205.98192
205.31803
206.31813
205.37947
205.3289
205.40848
205.73148
205.58318
205.9979
206.40981
205.49811
206.82202
205.6527
205.55131
205.65785
206.05652
205.81434
205.73153
206.44497
206.97575
205.78651
207.4268
206.04896
205.83396
205.94685
206.09995
206.53292
206.13733
207.0497
207.68032
206.16357
208.19456
206.57211
206.19225
206.28819
206.43988
206.69044
207.2454
206.53802
207.8048
208.51904
206.66029
209.29212
207.23836
206.63985
206.75147
207.0294
207.36013
208.05733
208.70343
209.5165
207.30744
210.32237
208.07187
207.30128
207.37456
207.67825
207.49437
208.30792
209.01983
209.67025
210.5689
208.10274
211.31842
209.06203
208.11281
208.15505
208.86132
208.15521
208.26709
209.35033
210.19638
210.73547
211.54053
209.07437
212.26772
210.19416
209.08714
209.11145
209.13305
209.91277
209.13456
210.35179
211.1671
211.73416
212.49804
210.21915
213.09129
211.44445
210.26265
210.24435
210.33652
210.84283
210.63538
210.26911
211.40383
211.65339
212.11366
212.71292
213.41845
211.54219
213.97485
212.96278
211.58997
211.55443
211.50817
211.92553
211.98012
211.53092
212.44064
212.59189
212.61472
213.10624
213.66257
214.36143
213.04006
214.90657
214.76336
213.03787
212.96471
212.57641
213.03054
212.80353
213.7772
213.52541
213.80724
214.09508
214.65082
215.30107
214.78695
215.85879
216.57517
214.69137
214.58679
214.11006
214.08144
214.03334
214.42969
215.54975
214.6404
215.25884
215.1802
215.65726
216.26843
216.73893
216.85303
218.60082
216.56132
216.38048
215.90983
215.78439
215.63013
216.14802
216.91213
215.86486
216.59152
216.26757
216.71101
217.28893
218.76753
217.89375
220.93475
218.58203
218.36319
217.73466
217.42091
217.13975
218.05028
217.5313
218.65528
217.24385
217.91681
217.40344
217.79018
218.33254
220.90807
219.00307
223.27194
220.70889
220.48568
219.68179
219.25976
218.812
220.10893
219.0379
220.19108
218.52532
219.54965
218.56117
218.8746
219.45833
223.12769
220.18068
225.33999
222.91393
222.67916
221.77062
221.22954
220.71095
222.27033
220.7028
222.20536
220.07153
219.77842
221.67758
219.74836
220.0475
220.65982
225.29903
221.46638
227.39657
225.15024
224.91624
223.95784
223.35086
222.61608
224.49299
223.83563
222.45451
221.47578
221.09104
223.61361
221.03461
221.3134
221.97719
227.35862
222.87393
229.35969
227.29115
227.08352
226.15603
225.48502
224.74242
226.68238
226.087
224.49101
223.66238
222.89077
222.51408
225.6995
222.43745
222.69423
223.42492
229.29471
224.37694
231.18089
229.25185
229.06569
228.24627
227.5918
226.84579
228.72067
228.06757
225.83878
225.03764
224.41315
224.02995
227.28109
223.95503
224.19789
225.00488
231.0859
225.96348
232.83504
231.02109
230.82973
230.13074
229.54352
228.81522
230.53839
229.82365
227.19101
227.74657
226.51825
225.95892
225.63411
229.20941
225.60564
225.86354
226.74078
232.70504
227.74206
234.3006
232.60425
232.40104
231.79268
231.27396
230.65585
232.14006
231.46915
228.66653
229.34618
227.98475
227.54165
227.33461
230.69562
227.37013
227.72239
228.64741
234.13603
229.64667
235.56267
234.01052
233.79423
233.22234
232.76302
232.21162
233.54633
233.0686
230.72077
229.98949
229.48455
229.17057
229.10915
232.47604
229.25557
229.7152
230.63435
235.39044
231.56861
236.6609
235.26063
235.03801
234.49132
234.096
233.61291
234.80236
234.42412
231.94157
232.66655
231.36014
230.98926
230.84427
230.94289
234.05095
231.21692
231.71566
232.63594
236.49621
233.49831
237.63341
236.37186
236.147
235.62916
235.27816
234.87433
235.92387
235.55956
233.94555
233.14618
234.25696
232.6942
232.53133
232.56002
232.77164
235.09867
233.15061
233.70015
234.60246
237.48679
235.41605
238.49605
237.35726
237.1362
236.67554
236.35808
236.0097
236.9293
236.67638
235.3106
234.87958
234.29009
234.11038
234.09817
234.24414
234.51192
236.07873
235.05187
235.67038
236.46094
238.3858
237.33186
239.28651
238.23586
238.03122
237.6599
237.39478
237.11731
237.84535
237.90738
236.54957
236.34237
235.73473
235.58274
235.54536
235.6421
235.84188
236.11148
237.29757
237.01889
237.53681
238.26606
239.21114
239.28206
240.04458
239.0379
238.83687
238.54497
238.40111
238.29693
238.65828
239.07646
237.97755
236.99224
237.59486
236.87926
236.90665
236.98634
237.10195
237.2331
237.62835
238.52417
238.74594
239.24439
240.06324
239.962
241.31482
240.76875
239.78543
239.5905
239.41342
239.45456
239.23581
239.3787
240.15223
239.66458
239.2248
238.01179
238.73173
238.18895
238.26545
238.35779
238.40776
238.42455
239.19125
239.68953
240.07051
240.26356
240.88468
241.93924
240.68972
243.43252
241.51104
240.52356
240.31567
240.08839
240.39765
240.27997
241.39182
240.7025
240.58586
239.46375
240.18066
239.55422
239.5976
239.58973
239.52778
240.50578
240.99153
241.38253
241.41973
241.80892
242.59991
243.91141
241.42891
245.57641
242.26308
241.26937
241.08019
240.69839
241.37289
241.12673
241.80338
242.77114
242.15053
240.88038
241.96322
240.83414
240.80418
240.67897
241.69546
242.42669
242.68019
242.52105
242.65649
243.32306
244.40733
245.93469
242.21195
247.67824
243.06337
242.0748
241.91495
241.65833
242.41594
242.16735
243.10831
244.35734
243.8999
242.53129
242.14954
243.83028
242.08286
241.9086
242.94713
244.09266
244.07417
243.69119
243.70943
243.9739
244.96727
246.2997
247.92789
243.03492
249.67653
243.96527
242.92934
242.80595
242.62245
243.58699
243.39363
244.58924
246.08812
245.79225
244.48035
243.52803
243.47672
245.80361
243.24907
244.41476
245.95968
245.59451
245.01029
244.86337
245.12431
245.58745
246.72333
248.19203
249.83158
243.97737
251.53423
244.96729
243.91009
243.84329
243.72945
244.88436
244.77402
246.20827
247.90184
248.03443
245.57974
244.92279
244.90199
247.8081
246.30452
247.938
247.27
246.47519
246.21632
246.43631
246.9215
247.6349
248.53184
250.02045
251.61417
245.03092
253.23349
246.08417
244.98838
244.98172
244.94602
246.29534
246.28519
247.87489
249.58482
250.2454
247.73804
246.83424
250.52314
248.49024
249.7795
248.14712
249.06616
247.7995
247.99748
248.46472
249.15356
249.77225
250.33129
251.74016
253.26558
246.19684
254.68404
247.25861
246.18206
246.22771
246.2682
247.73443
247.83021
249.46099
251.07533
251.82383
250.74645
249.09453
252.46778
251.15775
251.12128
249.98304
249.62182
250.93397
249.79414
250.26219
250.87819
251.43692
251.57237
252.065
253.35252
254.6927
247.41419
255.89369
248.36273
247.42842
247.5206
247.62528
249.12514
249.30587
250.88472
252.24611
252.90527
252.4063
252.86291
254.09742
253.48048
251.5967
251.93241
251.78565
252.78721
252.22701
252.78514
253.30211
253.42256
254.02906
252.96623
253.75863
254.80131
255.93719
248.61078
256.84888
249.38763
248.64373
248.78269
248.93855
250.37688
250.61998
252.08034
253.31662
253.55674
254.55966
255.1181
255.32106
253.85346
253.61522
253.81999
254.26261
254.81518
254.71841
255.1216
255.23841
255.22631
255.83526
255.37718
256.14036
256.9659
249.66893
257.62572
250.34224
249.74717
249.93078
250.13007
251.43924
251.73225
253.00894
254.28509
254.65453
255.50635
255.88082
256.28185
256.20452
255.82808
256.24985
255.46947
255.81482
256.61211
256.66113
256.86441
256.89198
256.64982
257.20227
256.89207
257.34464
257.87335
250.57672
258.29922
251.17095
250.67661
250.90096
251.14422
252.30871
252.65668
253.8383
254.98198
255.45777
256.27208
256.54166
257.45677
256.8491
258.04306
257.55185
258.39587
256.97243
257.65204
258.56003
258.43326
258.24903
258.52256
258.2741
258.59678
258.31685
258.51719
258.72716
251.36622
258.98262
251.8842
251.46245
251.70211
251.97742
253.01591
253.42168
254.51183
255.49277
256.03955
256.97225
257.00031
258.46419
257.60842
257.35882
259.63735
259.98201
259.16112
260.08563
259.72509
259.92536
260.5205
260.06202
259.78113
259.58628
259.73795
259.70081
259.66505
259.62621
252.03965
259.77099
252.50118
252.13672
252.36713
252.6523
253.62184
254.04793
254.98534
255.88268
256.45598
257.52621
257.39377
259.44093
258.30109
258.01574
261.34883
261.0347
261.42477
261.16713
261.34438
260.65134
261.96986
261.49771
261.20998
260.16711
260.54044
261.01597
260.78979
260.55957
252.61788
260.71266
253.01892
252.72537
252.94755
253.23768
254.10145
254.51735
255.34219
256.16452
256.75946
258.00068
257.77294
259.07551
260.15311
258.58111
262.46189
262.58304
262.09933
262.37722
261.94497
262.74747
261.28887
263.18976
262.7977
262.54098
260.99519
261.27192
262.26519
261.90934
261.61716
253.1263
261.82974
253.48126
253.22936
253.44984
253.7354
254.46007
254.86948
255.60822
256.38963
257.09842
258.44311
258.2155
259.67666
260.73699
259.09851
263.48129
263.55931
263.40836
263.38525
263.00535
262.25897
263.81059
264.4703
264.18619
263.94759
263.74727
261.89173
263.45047
263.05714
262.81901
253.57008
263.08682
253.87548
253.6747
253.86083
254.1213
254.75698
255.13495
255.86773
256.62207
257.22837
258.90922
258.84769
257.77615
260.2209
261.35892
259.57114
264.42588
264.33799
264.26492
263.93813
263.3244
262.45238
264.94281
265.48161
265.25194
265.10498
264.98232
264.83672
262.48999
264.5589
264.22191
264.06766
253.92314
264.3217
254.21506
254.03763
254.15984
254.4513
255.0388
255.42589
256.14255
256.93764
257.41244
259.43919
259.43913
258.28773
260.73313
261.88883
260.06935
265.12107
265.02023
264.74744
264.2406
263.51452
265.70472
266.06471
266.22325
265.93588
265.90346
265.88107
265.80183
263.24655
265.5986
265.3811
265.2773
254.24952
265.36696
254.57394
254.28323
254.52422
255.35876
254.89379
255.70024
256.52668
257.41495
257.86227
260.01473
258.91173
260.11445
261.26947
262.48792
260.61959
265.69084
265.43262
265.01015
264.32732
266.24276
266.7053
266.58835
266.71621
266.56226
266.6001
266.65816
266.65759
263.70436
266.58941
266.48104
266.31086
254.58894
265.96765
254.99771
254.61863
254.56301
255.40813
255.04221
256.11697
257.02533
257.99898
258.43137
260.66671
259.59188
260.90143
261.86372
263.00524
261.24151
266.07574
265.69585
265.06566
264.23186
266.61059
267.09498
267.15495
267.05192
267.06787
267.0769
267.19414
267.32619
267.4548
264.00368
267.52097
267.3858
266.9468
255.01749
266.0347
255.46775
254.9929
255.91541
255.74998
256.71756
257.65161
258.72524
259.12946
261.41032
260.34244
261.51835
262.46651
263.55959
261.92199
266.32411
265.71849
264.90535
266.87424
267.49359
267.444
267.48503
267.42552
267.34957
267.50743
267.70151
267.92101
268.19169
264.60365
268.29187
267.92264
267.0732
255.50182
265.42662
256.04941
255.48841
256.45834
256.28924
257.33906
258.39679
259.54295
259.90344
262.22453
261.07025
262.068
262.14615
263.11045
264.16147
262.6602
266.40005
265.50166
267.03553
267.81263
267.79581
267.73266
267.74327
267.73146
267.54101
267.86353
268.12541
268.45496
268.77606
265.1802
268.74974
268.0108
266.55278
256.07573
264.02861
256.72941
256.12299
257.10941
256.94588
258.12774
259.25682
260.45517
260.73527
263.12143
261.83134
262.84021
262.97397
263.76828
264.7856
263.40464
266.20194
267.16957
268.096
268.07138
268.03527
267.96192
267.93387
267.96722
267.6914
268.15331
268.48958
268.86857
269.09887
265.78935
268.81967
267.57951
265.35443
256.75325
262.16241
257.52055
256.81269
257.90568
257.74148
259.01935
260.23618
261.43008
261.62021
263.89382
262.68679
263.66809
263.76093
264.43067
265.42571
264.12493
266.77059
267.58564
268.33355
268.31883
268.25784
268.20819
268.10311
268.08042
268.14606
267.90856
268.36422
268.72256
269.09666
269.12304
266.37223
268.47934
266.60248
263.66702
257.53697
260.48258
258.46175
257.61308
258.83307
258.68129
260.0613
261.2968
262.49139
262.57399
264.67954
263.61074
264.58068
264.59306
265.10758
266.0573
264.85442
267.24308
267.98124
268.53461
268.49973
268.4311
268.41298
268.28296
268.17532
268.27395
268.23408
268.45122
268.81103
269.07477
268.87598
266.94897
267.67225
265.15676
261.99591
258.46255
259.30621
259.57434
258.55441
259.92468
259.79569
261.20242
262.4564
263.63499
263.61198
265.48277
264.6231
265.55921
265.47465
265.78551
266.7162
265.5914
267.72683
268.28921
268.663
268.59051
268.63687
268.44019
268.56843
268.25574
268.16325
268.42376
268.2165
268.45893
268.73683
268.85181
268.21612
267.55399
266.37365
263.5922
260.77817
259.5913
258.94739
260.83367
259.68154
261.13579
261.04926
262.44357
263.69693
264.87674
264.73627
266.38762
265.72396
266.63587
266.46143
266.52734
267.42712
266.41884
268.20447
268.64814
268.74766
268.6709
268.51237
268.7674
268.31758
268.73076
268.14261
268.04322
268.0588
268.31923
268.39788
268.3227
268.25003
267.04283
268.18559
264.87211
262.22535
260.25411
260.90745
259.52334
262.27569
260.97666
262.44857
262.42107
263.77342
265.03675
266.19974
265.94874
267.36226
266.89259
267.77071
267.5228
267.33452
268.18474
267.30588
268.68112
268.90673
268.84657
268.70189
268.48824
268.27718
268.91066
268.06839
267.87026
267.81584
267.79477
267.75805
267.65102
267.81865
267.22735
265.64308
268.79407
263.35705
261.42861
260.57112
262.37288
260.90807
263.8636
262.40921
263.84979
263.90273
265.19593
266.45125
267.59127
267.21762
268.40827
268.0946
268.92213
268.62828
268.22742
269.00868
268.2741
269.09028
269.13755
268.75387
268.94802
268.4441
268.1502
267.88083
267.64239
267.48301
267.4821
267.44888
267.05407
267.32112
267.06655
265.92263
264.03184
269.35895
262.28163
261.35008
261.61556
263.95385
262.82054
265.51008
263.9527
265.3297
265.45936
266.66906
267.93156
268.95672
268.50425
269.4517
269.29238
270.03828
269.71447
269.19378
269.74877
269.24203
269.44499
269.16418
268.43927
268.84824
267.99042
267.60532
267.33526
267.13691
267.0507
267.12317
266.79384
266.51961
266.57376
266.53689
265.82486
264.34196
262.6371
269.82697
261.78535
261.98275
263.04823
265.59691
264.71271
267.18651
265.56268
266.85896
267.03642
268.17163
269.52328
270.239
269.72673
270.43515
270.41613
271.05515
270.71348
269.9791
270.30396
270.17817
270.17829
269.62934
269.03565
269.32483
268.61245
267.96136
267.31978
266.94726
266.74048
266.6242
266.59562
266.22677
265.78603
265.88103
265.81481
265.33038
264.1328
262.67294
261.70561
270.16419
261.94687
263.10097
264.61243
267.24507
266.03923
268.78453
267.17704
268.3656
268.5475
269.68929
270.83496
271.28157
270.85023
271.29129
271.43253
271.91216
271.57796
270.80097
270.72612
270.84091
270.97179
269.81567
268.95645
269.36942
268.30892
267.2071
267.86881
266.61011
266.31735
266.17103
266.13243
265.71685
265.26832
265.21882
265.1358
264.71974
263.71345
262.29129
261.26256
261.35657
270.40794
262.61654
264.31736
265.90364
268.82194
266.96095
270.29315
268.72114
269.75408
269.94535
270.97099
271.56441
271.81316
272.20682
271.9102
272.03985
272.26559
272.58368
272.29194
271.35404
271.02631
271.29478
271.74568
269.87965
268.80775
269.39196
268.01703
267.16541
266.47835
265.99225
265.76235
265.69159
265.2994
264.76739
264.90553
264.55575
264.13884
263.29363
261.92073
260.67484
260.48323
261.63137
270.54628
263.55347
265.45087
266.75144
270.28163
267.44434
271.65223
270.15217
270.88588
271.19663
271.78793
272.5379
272.57074
272.5548
272.98036
272.69269
272.63636
272.90118
273.0432
272.78781
271.81285
271.62801
271.17317
272.32835
269.72487
268.614
267.46759
266.51127
265.88697
265.47336
265.33879
265.00891
264.20652
264.49901
264.70087
263.66446
262.88348
261.66319
260.26834
259.6375
260.44734
262.36113
270.50355
264.69433
266.45929
267.33736
271.55613
267.45437
272.78631
271.40831
272.15419
273.05014
273.29341
273.27491
273.56568
273.11908
273.24825
272.97085
273.3393
273.3528
273.12585
272.14788
271.75943
271.2247
272.65736
269.27911
268.16432
267.0135
265.98909
265.39677
265.12373
264.88004
263.94826
263.30167
264.40669
264.65874
262.54546
261.43367
260.07011
259.07881
259.33166
260.97822
263.50579
270.37624
265.88675
267.31775
267.68661
272.64779
267.083
273.72669
272.44411
273.77087
273.3928
273.90228
274.03542
273.69523
273.66257
273.63867
273.28587
273.00227
273.59045
273.46851
272.25287
271.81565
271.26121
272.62635
268.93921
269.72185
267.85726
266.60954
265.59385
265.10596
264.94922
264.11552
263.62984
262.25597
263.12968
264.42381
264.80337
261.23101
259.92644
258.81247
258.53647
259.64615
262.01877
264.80509
270.5371
266.97517
267.83633
267.6339
273.58886
266.6755
274.45422
274.13854
274.31428
274.3478
274.40304
274.08792
273.95506
273.82917
273.31681
273.05197
273.70781
273.50746
272.33621
271.82271
271.3172
272.69644
268.98321
269.79039
267.52194
268.42034
266.72803
265.34009
266.11821
265.27564
264.03221
263.54537
261.99467
261.00894
262.7986
264.62486
265.19874
259.78651
258.64746
258.06852
258.56468
260.57955
263.38802
266.16335
270.51153
267.72682
267.93621
267.12
274.33013
266.24674
274.98792
274.68533
274.74949
274.74022
274.58192
274.27411
274.09833
273.90584
273.30158
273.03751
273.72603
273.51369
272.24397
271.87908
271.26998
272.82948
269.19093
269.84014
267.71027
268.28947
267.23947
265.84887
266.55871
265.91117
264.23137
263.64983
261.75392
260.7564
259.58357
262.85922
265.10494
265.97131
258.49739
257.78105
257.78788
259.05279
261.86331
264.97672
267.12171
270.53761
268.07183
267.60165
266.54382
274.84934
265.84038
275.32775
275.05454
275.0278
274.87588
274.64719
274.37679
274.14368
273.9132
273.37749
273.09887
273.70742
273.51538
272.44616
271.90989
271.31165
268.92971
269.80352
268.28722
267.6498
266.69946
264.71294
264.04966
260.52435
261.82866
259.35322
258.26668
263.17827
266.07969
266.96751
257.54116
257.33309
257.86662
259.47558
260.97518
263.58593
266.01839
267.70162
270.69836
268.02589
267.07186
266.07568
275.19606
265.52895
275.50576
275.27544
275.12422
274.89662
274.61005
274.37843
274.11577
273.86352
273.3966
272.90232
273.26596
273.66924
273.53035
272.54227
272.00547
271.55258
269.08897
270.01286
268.68306
267.85975
265.65539
264.83875
260.55412
259.18403
262.10712
258.01898
257.22622
263.86573
267.18582
256.96493
257.19301
258.14468
259.91423
262.1148
264.65731
266.70222
267.94555
271.2469
270.79518
267.68391
266.63576
265.76223
275.39013
265.38436
275.51646
275.34361
275.10818
274.81607
274.48654
274.30221
274.02215
273.79652
273.47491
273.07762
273.30881
273.65782
273.58177
272.60591
272.28209
272.14014
269.61147
270.23627
269.17954
268.76045
268.07589
266.7905
265.64852
259.18846
260.79527
257.8333
262.73078
256.91819
256.5539
264.67439
267.67604
256.69292
257.30518
258.52898
260.88331
263.16039
265.40825
267.09409
267.84445
271.80812
271.43702
267.30505
266.3412
265.6903
275.44854
265.49953
275.44525
275.30256
274.99216
274.66057
274.3375
274.18108
273.92897
273.77818
273.52683
273.3512
273.44346
273.73468
273.78327
272.83962
272.71764
272.43962
270.1596
270.856
269.69044
270.13799
269.21058
268.69294
267.53478
266.28331
259.40292
257.78326
261.39409
256.6596
263.59798
256.18857
256.2324
265.47257
268.62508
256.72894
257.19238
259.52586
257.91004
261.68404
263.98129
265.80132
267.33061
267.61469
272.12483
266.97694
266.23442
265.92629
275.40146
265.99929
275.29036
275.15987
274.81329
274.48549
274.22011
274.0765
273.91445
273.88648
273.77666
273.75914
273.73937
273.96324
274.07363
273.20895
273.05367
272.64425
270.99106
271.55827
269.93515
270.5119
269.41181
267.73352
266.45
259.94294
257.99693
256.54334
262.31983
255.83144
264.61352
255.81242
256.2776
269.31966
256.54247
260.32436
258.3919
257.04728
262.45147
264.46352
266.21018
267.5838
267.47063
272.7893
266.8339
266.41842
266.30484
275.25646
266.87118
275.05054
274.95116
274.62403
274.35573
274.19398
274.05857
274.04628
274.15094
274.14056
274.22891
274.19143
274.29593
274.44797
273.62856
273.51711
273.22295
271.3152
272.14102
270.84128
270.17326
266.99729
269.0598
265.74044
260.86808
258.53608
256.71452
255.64795
263.48159
255.36591
255.79656
270.49123
256.06039
261.07035
259.14703
257.5513
256.54883
263.02935
264.63354
266.07294
267.31652
267.302
273.47652
266.95857
266.69726
267.22657
275.04214
267.94259
274.81233
274.7436
274.47562
274.31783
274.29201
274.17895
274.31057
274.49938
274.58096
274.7698
274.71586
274.69956
274.90532
274.12734
273.95296
271.86648
272.82835
271.141
268.51611
266.31614
270.4549
264.83048
262.12331
259.4282
257.19615
255.7295
255.11373
255.3537
271.64068
255.69289
261.67755
259.79422
258.18213
256.98629
256.16368
263.54606
264.0698
266.47362
264.85243
267.28496
267.39034
274.3797
273.72824
267.24313
267.52026
268.33655
274.80966
269.04698
274.63947
274.57765
274.41117
274.39454
274.51966
274.42556
274.64876
274.91022
275.14176
275.32492
275.31909
275.21109
275.48557
274.63229
272.28333
273.32658
267.95062
270.1642
265.39466
271.94595
263.63324
260.77202
258.06474
256.09594
255.12441
255.15992
272.74999
255.41811
262.13107
260.39638
258.77928
257.52745
256.59829
255.95436
262.77009
265.08188
266.59239
263.33995
267.3828
267.70536
274.7876
275.15611
274.33169
268.01889
268.52774
269.50287
274.63494
270.34773
274.54311
274.48853
274.46113
274.60422
274.83656
274.75224
275.06458
275.44147
275.77764
275.96649
275.87078
275.80421
276.0838
273.87345
269.63178
267.15743
271.55183
264.5006
273.22982
272.37558
262.46257
259.55731
256.8167
255.3387
254.9286
255.4438
260.91793
259.33344
258.02623
257.06392
256.38895
255.92219
261.47833
263.78825
265.49682
266.89017
261.94534
267.76644
268.39339
275.28535
275.62589
274.93136
268.95857
269.6628
270.77996
274.55612
271.33205
274.57639
274.53082
274.65678
274.92018
275.24501
275.1798
275.61027
276.00198
276.57765
276.56596
276.36562
276.42044
276.76903
274.44841
268.98275
271.39734
266.53286
273.15505
263.87445
273.81749
261.29478
258.20225
255.89876
255.08548
255.1198
255.66936
259.81616
258.49361
257.50441
256.85982
256.4652
256.20026
260.28794
264.22976
262.42713
265.91408
267.35874
260.72201
268.37255
269.27035
276.14999
275.88503
275.53812
269.99381
270.87676
271.82892
274.59748
272.2146
274.74902
274.73158
274.96531
275.33739
275.71499
275.70269
276.20644
276.6408
277.06014
277.10741
276.99234
276.83152
277.04918
277.45292
275.06607
270.78705
268.57871
273.12959
266.14226
274.41361
263.60527
261.28272
257.02417
259.80701
255.51639
255.45238
256.29326
258.90206
257.89162
257.25878
256.93875
256.79723
256.88542
259.29213
264.69612
262.90912
261.20855
266.41713
267.9449
259.67856
269.21471
270.23776
276.73621
276.49578
276.19846
271.11011
271.93563
272.62556
274.80235
272.76612
275.00237
275.02056
275.38329
275.84117
276.17139
276.29687
276.90674
277.27975
277.96257
277.67441
277.51655
277.43575
277.64659
278.08996
275.67438
270.33955
272.27462
268.41381
274.86144
273.7174
266.01988
263.56558
261.07132
258.73126
256.67429
256.07092
257.12611
258.22538
257.58843
257.30054
257.23909
257.49619
257.95648
258.53827
263.4402
265.19978
261.69014
260.15489
267.02792
268.73287
258.88178
270.12002
271.24633
277.30781
277.11951
276.8103
272.09042
272.72423
273.03008
275.08077
273.08199
275.36925
275.41539
275.8928
276.38047
276.69729
277.49216
277.06093
277.87633
278.15316
278.20648
278.17216
277.99762
278.27219
278.62733
276.26
270.56758
272.6167
268.55737
275.47062
274.60954
266.13267
263.49052
260.84416
258.28109
257.44623
258.67172
257.83825
257.56023
257.6128
257.97665
258.51594
259.33354
258.08273
262.23022
263.94125
265.88998
260.64866
259.35424
267.79559
269.55307
258.39002
270.96708
272.09425
277.89257
277.72466
277.38823
272.81382
273.12383
273.2115
275.4684
273.17601
275.83536
275.88118
276.52985
276.94254
277.71782
278.03219
277.41419
278.44455
278.9913
278.58221
278.57813
278.51643
278.77625
279.01254
276.87034
270.9112
273.263
268.88816
276.17408
275.33779
266.32397
263.74028
260.8566
258.84437
260.17357
257.74634
257.87726
258.31591
258.86706
260.02362
261.65353
257.94402
261.20047
262.76933
264.67568
266.64657
259.87685
258.85728
268.56498
270.28726
258.2322
271.72706
272.76783
278.46114
278.27038
277.97448
273.16316
273.23621
273.18896
275.93537
273.09421
276.33989
276.39147
276.84558
277.15506
278.17056
277.83906
278.59309
277.67178
278.94327
279.13135
279.09775
279.02323
279.02734
279.24736
279.40326
277.54444
271.78003
274.11752
269.23151
276.89134
276.16935
266.87368
264.38451
261.36349
262.47875
261.54976
258.02332
258.52833
259.44703
260.34717
261.27755
263.41751
258.186
261.80385
260.41616
263.52727
265.41545
267.38391
259.39656
258.69819
269.26628
270.98816
258.45292
272.31261
273.04565
278.95178
278.80007
278.5874
273.24842
273.11931
273.00375
276.42837
272.70488
276.93784
276.90213
277.51985
278.24497
278.6802
278.17399
279.07072
277.89017
279.40644
279.46371
279.42017
279.4584
279.46081
279.62011
279.75045
278.183
272.23176
275.06504
269.86667
277.62598
277.13685
267.71194
265.50832
264.2485
258.62041
259.64984
261.11528
261.4761
263.01998
265.91936
264.87575
258.75406
261.10313
262.55722
259.98601
264.28275
266.14466
268.05873
259.2514
258.9141
269.89963
271.52017
259.00861
272.57676
273.06336
279.41225
279.34032
279.13133
273.13278
272.89624
272.56969
276.9701
272.19985
277.43072
277.36788
278.75979
279.1453
278.51464
279.53566
277.86132
278.26624
279.80795
279.76947
279.7848
279.82995
279.84791
279.9642
280.02311
278.7904
274.38146
272.50725
276.53601
271.30538
278.41231
278.10984
268.92198
267.09219
259.64305
261.24337
262.71059
262.65544
265.19311
268.06463
268.99852
267.41786
259.76463
261.86374
260.72942
263.29092
259.91453
265.02661
266.87553
268.669
259.46663
259.45113
270.20021
271.69399
259.96367
272.54813
272.88693
279.88241
279.79677
279.62466
272.85181
272.44427
271.9726
277.45672
271.39268
277.88588
278.8714
279.16766
279.64604
278.77587
279.93149
278.33972
277.94843
280.13182
280.05204
280.09833
280.14249
280.26251
280.23405
280.27023
279.40333
275.16124
273.98181
276.8838
272.47407
279.20317
278.9684
270.30698
261.10104
262.9585
264.93269
264.2293
266.97156
270.38835
271.26339
272.07507
269.66385
261.13059
262.59818
261.49199
260.7012
263.978
260.20424
265.8279
267.58232
268.93511
260.03431
260.34416
270.3396
270.81951
271.80395
261.25199
272.39142
272.58095
280.27
280.17621
280.11658
272.33816
271.87124
271.3717
270.37467
278.31246
279.2637
279.4623
280.02895
279.67918
278.6894
279.00692
280.26451
278.40646
280.39774
280.30477
280.34512
280.5071
280.55931
280.4455
280.47946
280.00246
275.98974
278.2588
275.34465
273.22416
279.88676
279.9184
262.89002
265.23314
266.35068
266.20135
268.94238
273.45577
272.56239
275.34908
275.03847
271.74135
262.75178
262.19432
263.29091
261.45643
261.02328
264.7253
260.8345
266.6082
267.95587
269.07204
260.94249
261.59507
269.4081
270.94107
269.91086
271.74577
262.66205
272.11086
272.07683
280.5646
280.542
280.57689
271.68131
271.31174
270.37884
269.10549
278.71649
279.52649
279.84161
280.35655
280.14479
279.11443
278.81169
280.52007
280.61188
280.48982
280.65444
280.70943
280.77182
280.63229
280.63148
280.51539
277.72526
279.58872
276.12953
280.64558
280.84781
265.63228
267.39904
268.35477
270.77824
275.44271
276.99778
274.57208
277.48415
276.91831
273.51738
264.33044
262.11481
262.84018
263.95538
261.76704
261.66948
265.21591
261.73206
266.28723
267.92682
262.26439
263.07827
268.04116
270.1332
271.03528
268.78819
271.57593
264.45629
271.6203
271.44711
280.82316
280.86896
280.93771
270.99305
270.33781
268.98156
267.60961
279.06623
279.46466
279.75318
280.14015
280.40608
280.61406
279.20081
280.74085
280.76624
280.74369
280.78777
280.86263
280.94013
280.7637
280.83649
281.01431
278.04572
279.53252
280.75503
281.23771
281.47001
267.69834
269.66219
272.16347
277.17006
277.60389
279.52163
276.35166
279.02882
278.91777
274.80767
266.50344
262.36907
262.70246
263.4442
264.55481
262.39257
262.60108
265.13624
262.97842
266.21974
263.822
265.63235
267.10356
269.20151
270.37265
270.9622
267.73958
271.14461
270.93864
270.70501
281.00774
281.11358
281.23035
269.81062
268.87412
267.26348
265.89719
279.4429
279.8191
279.57449
280.17027
280.44168
280.67902
280.83069
280.86814
280.88917
280.83718
280.89151
280.96257
281.01781
280.9213
280.89912
281.37379
280.18023
281.14745
281.67592
281.73688
268.57006
270.39841
273.12395
278.43916
279.02848
279.94332
280.28693
277.14576
281.22414
280.68124
275.35015
267.14286
262.93521
262.85414
263.21454
263.95561
263.2971
263.88246
264.50614
264.40746
265.21062
265.53425
267.39597
266.18146
268.33336
269.54041
270.37135
270.5763
266.80388
270.43628
270.02681
269.37634
281.11144
281.20338
281.35344
268.07395
266.9548
265.33948
264.15668
279.77851
280.14522
279.92457
280.45327
280.70464
280.87794
280.96477
281.01838
281.00273
280.9035
280.94541
280.97345
281.09404
280.98243
280.93956
281.61074
281.51966
281.7848
281.96417
271.00376
269.91038
273.3613
279.83292
279.01709
280.99853
281.68259
280.93074
277.22871
278.85007
281.77417
275.77962
269.68041
263.30809
263.79781
263.23403
263.64707
264.54699
265.44155
264.12545
266.90526
264.6604
267.84558
269.2485
265.44483
268.71372
267.43047
269.57727
269.97631
269.78759
265.99408
269.37332
268.46155
267.38882
281.08622
281.33018
281.44254
265.82379
264.79235
263.32058
262.09603
280.12437
280.26143
280.46017
280.70662
280.89552
281.04773
281.11062
281.07886
281.05111
280.92833
280.87163
280.96607
280.97315
281.01651
280.96809
281.56432