/*--------------------------------*- C++ -*----------------------------------*\
  =========                 |
  \\      /  F ield         | OpenFOAM: The Open Source CFD Toolbox
   \\    /   O peration     | Website:  https://openfoam.org
    \\  /    A nd           | Version:  7
     \\/     M anipulation  |
\*---------------------------------------------------------------------------*/
FoamFile
{
    version     2.0;
    format      ascii;
    class       volScalarField;
    location    "9.997";
    object      rho;
}
// * * * * * * * * * * * * * * * * * * * * * * * * * * * * * * * * * * * * * //

dimensions      [1 -3 0 0 0 0 0];

internalField   nonuniform List<scalar> 
192336
(
0.014995443
0.014995674
0.015001381
0.014996192
0.015001379
0.014999118
0.015000581
0.014997811
0.015012582
0.014999283
0.014989347
0.015009765
0.015025789
0.015002645
0.015027016
0.01501106
0.015051276
0.015005055
0.015052257
0.015028635
0.015086737
0.015034762
0.015088128
0.015052056
0.015139755
0.015085228
0.015137552
0.015087671
0.015093201
0.015216472
0.015141048
0.01513539
0.015210605
0.015150933
0.015312438
0.015207194
0.015169441
0.015191351
0.01531754
0.015216076
0.015427888
0.015283918
0.015222179
0.015240795
0.015325444
0.015436617
0.015289203
0.015556115
0.015370212
0.015290318
0.015305586
0.015448154
0.01556435
0.015373747
0.015693515
0.015468859
0.015370974
0.015374405
0.015466958
0.015577286
0.015700398
0.015472023
0.015838
0.015580934
0.015468293
0.015472235
0.015601451
0.015712593
0.015843943
0.015583892
0.015986593
0.01570771
0.015578532
0.015576797
0.015735675
0.01566282
0.015852704
0.015992574
0.015712306
0.016135775
0.015847677
0.015710326
0.015709077
0.015868532
0.015768536
0.015999384
0.01614292
0.015855388
0.016283083
0.016000621
0.015861015
0.01587267
0.016008426
0.015893161
0.015901922
0.016149722
0.016293422
0.016009886
0.016426812
0.016163824
0.016018562
0.016038936
0.016010001
0.016160564
0.016075464
0.016302864
0.01644337
0.016171291
0.016570684
0.016334262
0.01617474
0.01618123
0.016133668
0.016174648
0.01632359
0.016225764
0.016456468
0.016592377
0.016337999
0.016725726
0.016510124
0.016332206
0.016326228
0.01631182
0.016352412
0.01648462
0.016610541
0.016741754
0.01651067
0.01686693
0.016691005
0.016499076
0.016483356
0.016447822
0.016477807
0.016535377
0.016642941
0.016759525
0.016884324
0.01668767
0.016995485
0.016874628
0.016674635
0.016656696
0.016637421
0.016563344
0.016635164
0.016692792
0.016808207
0.016902965
0.017011412
0.016869393
0.017110027
0.017059477
0.016853796
0.016826761
0.01672372
0.016799645
0.016785369
0.01683086
0.016948548
0.017031677
0.017126384
0.017054503
0.017206109
0.017243455
0.017038749
0.017005389
0.016939824
0.016915035
0.01696405
0.016966732
0.016976377
0.017017007
0.017071127
0.017146761
0.017228477
0.017243272
0.017297427
0.01743547
0.017228451
0.017196677
0.017131922
0.01706631
0.017160754
0.017160502
0.017115801
0.017119171
0.017129996
0.017182516
0.017250071
0.017323692
0.017435101
0.017385776
0.017637032
0.017419539
0.017389169
0.017290989
0.017239087
0.01734614
0.017284811
0.017223165
0.017259936
0.017287322
0.017348377
0.017412727
0.01763437
0.017470833
0.017831288
0.017615388
0.017584949
0.017467586
0.017418565
0.017354469
0.017538905
0.017478564
0.01733989
0.017414573
0.017393796
0.017442097
0.017498947
0.017838127
0.017554555
0.018029584
0.017815766
0.01778184
0.017668651
0.017604383
0.017534123
0.017731336
0.017649661
0.017459914
0.017550225
0.01749583
0.017534339
0.017584589
0.018037072
0.017638836
0.018234361
0.018015581
0.017981268
0.017861027
0.0177847
0.017708631
0.017927701
0.017686201
0.01783601
0.017588239
0.017666286
0.017595389
0.017624487
0.01766922
0.018231173
0.017724791
0.018431126
0.018210878
0.018179082
0.018054406
0.017975031
0.017892977
0.018124835
0.017798547
0.01799051
0.017705894
0.017836658
0.017692146
0.017712201
0.017756119
0.018420076
0.017811453
0.018604762
0.018399705
0.018370569
0.018248584
0.01816606
0.018078613
0.01831857
0.017988917
0.018177559
0.017871412
0.01780695
0.01805293
0.017786347
0.017802122
0.017844077
0.018600223
0.017902349
0.01877267
0.018584854
0.018557276
0.018439087
0.018357018
0.018259622
0.018507057
0.01832575
0.018100351
0.017971566
0.017906481
0.018260217
0.017882357
0.017893595
0.017936778
0.018768967
0.017999059
0.018929318
0.018759839
0.01873474
0.018622929
0.018539274
0.01844226
0.01868778
0.01852331
0.018304247
0.01817995
0.018071936
0.018007904
0.018453779
0.017981484
0.017989581
0.018035882
0.018924011
0.018100531
0.01907109
0.018917018
0.018894849
0.018794951
0.0187143
0.018620111
0.018854081
0.018690193
0.01839797
0.018273873
0.018176573
0.018112055
0.018597279
0.018085597
0.018091788
0.018142056
0.019064035
0.018206894
0.019197951
0.019056299
0.019035353
0.018948909
0.018875908
0.01878556
0.019000502
0.018840792
0.018486973
0.018598187
0.018373109
0.018280192
0.01822028
0.018754388
0.018196603
0.018203021
0.018257561
0.019188695
0.018325794
0.019309383
0.019179088
0.019158718
0.019083286
0.019018583
0.018939341
0.019127949
0.018980666
0.018583565
0.018706586
0.018469864
0.018384697
0.018333501
0.018874312
0.018313693
0.018325783
0.018384182
0.019297873
0.018453569
0.019405083
0.01928694
0.019266843
0.019198111
0.019140755
0.019070088
0.019238726
0.019111642
0.018799728
0.018669572
0.018567153
0.018491458
0.018450546
0.01903068
0.018437686
0.018457091
0.018516848
0.019393035
0.018583494
0.019488157
0.019382021
0.0193625
0.019299188
0.019248603
0.019185035
0.019336834
0.019225802
0.01887209
0.019007388
0.018756092
0.018663763
0.018600471
0.01857056
0.019170913
0.018566205
0.018589833
0.018651526
0.019476536
0.01871511
0.019561375
0.019466021
0.019447306
0.019389409
0.019343969
0.019288526
0.019424054
0.019323858
0.019078788
0.018944352
0.019166454
0.018839747
0.018762368
0.018711391
0.018689488
0.019263285
0.018693601
0.018723238
0.018785224
0.01955091
0.018847918
0.019625965
0.019540197
0.01952244
0.019472137
0.019431631
0.019383123
0.019501853
0.019418679
0.019240857
0.019131691
0.019013844
0.018928613
0.018862029
0.018819393
0.018802803
0.019343419
0.018821538
0.018858031
0.018914137
0.019617945
0.018983431
0.019684629
0.019606116
0.019589722
0.01954943
0.019516101
0.019475904
0.019571988
0.019521132
0.019346318
0.019289495
0.019176489
0.019093215
0.01901845
0.018959556
0.018921833
0.018909381
0.019441997
0.018958656
0.018988726
0.019043013
0.019679034
0.019124259
0.019740195
0.019665898
0.01964974
0.019618598
0.019598359
0.019575207
0.019633706
0.01961751
0.019465387
0.019313335
0.01940059
0.019246059
0.019175083
0.01910821
0.019051678
0.019013762
0.019017589
0.019542507
0.019083926
0.019112727
0.019174683
0.019734352
0.019273109
0.019792737
0.019721176
0.019705269
0.019684621
0.019681744
0.019660305
0.019687576
0.019701882
0.019686629
0.019568233
0.019383521
0.019487565
0.019328375
0.019259201
0.019193385
0.019135089
0.019096718
0.019146297
0.01963879
0.019200623
0.019195225
0.019234872
0.019314045
0.019787266
0.01943045
0.019845737
0.01977511
0.019758812
0.019739393
0.019756625
0.019741947
0.019793553
0.019760713
0.019677917
0.019484369
0.019600743
0.019413488
0.01934102
0.019269474
0.019207137
0.019269583
0.019740204
0.019293125
0.019328837
0.019309822
0.019364252
0.019462718
0.019840241
0.019594299
0.019898715
0.019828741
0.019813705
0.019783796
0.019828572
0.019803851
0.019839784
0.019892739
0.019798259
0.019573982
0.01974917
0.019491232
0.019414002
0.019336266
0.019398694
0.019846774
0.019390405
0.019404348
0.019460047
0.019425985
0.019502611
0.019619418
0.019895369
0.019760458
0.019954238
0.019885568
0.019872738
0.019852081
0.019901648
0.019877088
0.019931631
0.020004801
0.019929161
0.019749652
0.019644137
0.019900741
0.019565272
0.019480179
0.019542908
0.019967245
0.019497778
0.019491159
0.019531479
0.01960731
0.019553261
0.019650341
0.019778333
0.019952476
0.019924935
0.020015802
0.019945086
0.019935148
0.019919946
0.019982124
0.019961877
0.020034405
0.020126001
0.0200686
0.019922416
0.01978754
0.019720865
0.020044317
0.019634769
0.019706194
0.020101049
0.019616045
0.01959197
0.019614789
0.019683697
0.01977957
0.019690841
0.019801939
0.019936343
0.020016727
0.020085928
0.020083373
0.020012106
0.020006356
0.019996172
0.02007032
0.020056373
0.020145603
0.020252126
0.020230129
0.019967933
0.019872582
0.019807881
0.02018769
0.019896769
0.020242112
0.019747039
0.01970517
0.019715464
0.019775032
0.01986613
0.019981003
0.019835636
0.019954427
0.020092783
0.020087566
0.020240092
0.020157818
0.020084706
0.020083307
0.020078655
0.020165308
0.020158878
0.020259331
0.020369014
0.020390605
0.020148355
0.019998706
0.020386648
0.020101962
0.020373541
0.019834056
0.019889366
0.019834049
0.01988633
0.019970264
0.020078225
0.020183685
0.019985481
0.020106917
0.020244117
0.020165066
0.020378814
0.020235439
0.020164126
0.020166439
0.020167185
0.020261522
0.020263045
0.020367331
0.020471844
0.020510868
0.020374666
0.020209066
0.020531778
0.020332888
0.020469697
0.019976734
0.019970215
0.020041253
0.020015882
0.020094195
0.020191448
0.020292816
0.020353244
0.020138178
0.020255995
0.02038143
0.020245394
0.020500185
0.020308075
0.020246369
0.020251944
0.020257355
0.020354316
0.020362435
0.020464475
0.020552488
0.020580813
0.020558287
0.020534173
0.020652645
0.020540003
0.020118704
0.020130484
0.020160283
0.02019828
0.020232149
0.020319962
0.020410732
0.020479523
0.020553738
0.02046734
0.020292203
0.020394027
0.02050486
0.020323917
0.020601729
0.02037514
0.02032614
0.020334934
0.020344221
0.020437859
0.02045128
0.02054654
0.02062603
0.020634663
0.02066852
0.020733135
0.020706222
0.020311915
0.020273438
0.020283923
0.02037728
0.020373589
0.020454275
0.020531861
0.020591994
0.020634104
0.020702248
0.020440566
0.020522988
0.02061071
0.020393124
0.020687346
0.020437137
0.020398326
0.02041022
0.020422909
0.020508976
0.020526993
0.020610891
0.020694042
0.020711979
0.020749394
0.020795082
0.020767194
0.020790803
0.020460656
0.02052156
0.020420194
0.020445879
0.020589161
0.02053939
0.020653293
0.020703733
0.020731402
0.02080642
0.020580729
0.020639791
0.020704391
0.020452231
0.02076079
0.020490549
0.020459019
0.020473829
0.020489928
0.020567262
0.020589902
0.020668226
0.0207442
0.020772091
0.020812968
0.020846458
0.020853089
0.020832315
0.020656007
0.020595655
0.020718974
0.020542342
0.020606385
0.020774833
0.020681484
0.02068332
0.020818031
0.020846099
0.020912334
0.020710502
0.020749472
0.020788699
0.020503288
0.020828165
0.020536167
0.020510162
0.020526318
0.02054501
0.020614458
0.020641713
0.020714748
0.020781757
0.020816539
0.020868246
0.020883206
0.02093126
0.020884661
0.020883228
0.020780374
0.020838479
0.020721766
0.020886871
0.020771334
0.02092002
0.020842304
0.02081956
0.02081656
0.020941978
0.021009016
0.020831811
0.020850996
0.020868876
0.020546494
0.02089567
0.020575321
0.020553713
0.020569648
0.020589451
0.020654464
0.020683896
0.020747947
0.020810466
0.020848798
0.020913001
0.020914136
0.021007716
0.020939116
0.020935127
0.020946212
0.020894024
0.020988494
0.021011836
0.020918555
0.02101752
0.020966567
0.020945319
0.020938762
0.021021476
0.021080686
0.020942107
0.020944403
0.020945578
0.020583222
0.020968345
0.020607821
0.020591225
0.020606952
0.020627535
0.02068588
0.020715534
0.020772997
0.020830899
0.020872338
0.020950586
0.020943208
0.020999441
0.021067281
0.020980152
0.021039389
0.021079658
0.020994976
0.021102466
0.021109932
0.021038618
0.02109579
0.021080729
0.02105846
0.021048838
0.021099814
0.021141051
0.021042659
0.021032519
0.021025759
0.020615078
0.021048921
0.020636456
0.020622773
0.020638605
0.020659452
0.020709168
0.020739233
0.020791259
0.02084636
0.020896455
0.020985258
0.020975565
0.021048508
0.021117443
0.021021329
0.021125181
0.02115886
0.021181656
0.021104388
0.021189594
0.021173237
0.021147454
0.021199315
0.021172175
0.021155392
0.021145784
0.021192563
0.021134267
0.021117772
0.021110793
0.0206424
0.021133754
0.020660507
0.020650068
0.020663736
0.020683715
0.020727887
0.020756747
0.020807864
0.020861023
0.020905221
0.02102036
0.021019044
0.020944566
0.021093007
0.021167482
0.021058771
0.021229357
0.021199024
0.021249119
0.021258734
0.021250282
0.021219056
0.021254285
0.021301967
0.021268157
0.021250843
0.02123956
0.021230291
0.021240605
0.021215774
0.021199815
0.021195387
0.020663663
0.021215427
0.020680867
0.020671829
0.020681272
0.0207034
0.020744879
0.020774514
0.020824253
0.020879733
0.020915911
0.021058542
0.021057821
0.02097821
0.021134634
0.021211966
0.021097099
0.021288619
0.021309491
0.021319773
0.021314527
0.021291655
0.021338946
0.021351389
0.021383139
0.021328046
0.021317269
0.021310256
0.021302009
0.021297074
0.021289456
0.021278922
0.02127563
0.02068323
0.021283711
0.020702145
0.020686059
0.020704265
0.020762435
0.020729825
0.020789715
0.020846239
0.0209081
0.020943825
0.021098527
0.021017409
0.021100405
0.021177423
0.021260041
0.021138034
0.021363488
0.021372799
0.021370342
0.021349365
0.021408018
0.021422644
0.021396105
0.021445883
0.021380269
0.021372846
0.02136878
0.021363749
0.021338002
0.021357937
0.021352355
0.021343075
0.020703441
0.021322677
0.020726949
0.020706316
0.020704324
0.020759985
0.020735499
0.020812629
0.020875169
0.020942724
0.02097874
0.021142117
0.021059014
0.021148563
0.021222873
0.021299816
0.021182585
0.021421979
0.02142094
0.02140103
0.021365454
0.02146253
0.021455038
0.021479801
0.021434685
0.021496533
0.021422119
0.021418058
0.021417372
0.021419611
0.021363772
0.021420895
0.021411695
0.021384304
0.020728592
0.021328295
0.020753892
0.020728439
0.020792264
0.020776352
0.020847143
0.020911506
0.020985421
0.02102073
0.021190749
0.021103768
0.021183909
0.021266821
0.021340447
0.021229561
0.021467035
0.021447847
0.021410494
0.021506611
0.02150597
0.021483292
0.021526592
0.021465239
0.021539576
0.021455384
0.021454557
0.02145906
0.021469725
0.021405365
0.021472336
0.021446615
0.021393633
0.020756588
0.021290783
0.020787026
0.020757086
0.02082335
0.020807148
0.020882701
0.020954662
0.02103303
0.021066311
0.021244454
0.021146336
0.021215711
0.021230725
0.02131157
0.021382266
0.021278605
0.021497231
0.021452801
0.021542011
0.021549701
0.021528616
0.021506058
0.021565863
0.021488734
0.021573619
0.021480894
0.021483755
0.021495043
0.021509148
0.021445242
0.021503136
0.021453692
0.021361529
0.020789259
0.021196002
0.020825886
0.020793798
0.020860669
0.020844989
0.020928421
0.021004577
0.021085955
0.021114652
0.021302513
0.021190404
0.021262476
0.021283471
0.021355706
0.021423947
0.021327572
0.02150424
0.021569937
0.021568879
0.021586996
0.021545799
0.021522789
0.021597518
0.021505231
0.021599591
0.021500214
0.021507832
0.021522543
0.021531141
0.021487817
0.021509383
0.02142703
0.021279589
0.020827903
0.021055874
0.020871589
0.020833364
0.020906834
0.020891035
0.020980305
0.021061649
0.021142433
0.02116569
0.021350912
0.021240172
0.021311278
0.021330889
0.021398759
0.021465208
0.021373658
0.021550156
0.021605248
0.02160283
0.021582776
0.021616619
0.021557035
0.021531928
0.021621952
0.021516457
0.021623494
0.021513585
0.021523054
0.021538024
0.021534891
0.021527138
0.021487866
0.021359461
0.021152097
0.020873087
0.020903887
0.020926822
0.020879547
0.020961006
0.02094593
0.021041413
0.021123574
0.021204085
0.021220844
0.021398189
0.021293916
0.021364358
0.021379681
0.021441336
0.021504592
0.021418878
0.021585491
0.021633066
0.021613321
0.021629447
0.021588569
0.021640303
0.021560972
0.02153559
0.021644101
0.021521324
0.021518988
0.021529368
0.021539648
0.021520269
0.021564519
0.021431359
0.021249602
0.021002987
0.020927227
0.020733508
0.020992691
0.020934525
0.021025336
0.021011752
0.021108501
0.021191365
0.021270582
0.021281057
0.021444932
0.021352681
0.021420878
0.021430486
0.021482614
0.021545143
0.021462948
0.021617272
0.021652898
0.021636136
0.02161443
0.021650693
0.021587534
0.021658937
0.021557726
0.021533478
0.021658142
0.021519322
0.021520171
0.021527331
0.021527554
0.02147373
0.021602301
0.021332772
0.021109217
0.020824913
0.020994073
0.02047344
0.021067241
0.021001212
0.021096922
0.021086065
0.021181459
0.021263789
0.021342862
0.021346336
0.021496705
0.021416596
0.021483195
0.021487108
0.021526959
0.02158821
0.021510966
0.021646154
0.021673178
0.021653476
0.021633336
0.021607109
0.021667106
0.021577434
0.021673639
0.021548154
0.021524106
0.021509132
0.021513487
0.021517081
0.021507392
0.021485543
0.021384712
0.02164054
0.021198702
0.02092142
0.020553818
0.021072338
0.020039408
0.021152671
0.021078246
0.021174427
0.021167299
0.021259428
0.021341996
0.021419818
0.021416795
0.021552044
0.021484415
0.021548785
0.021548048
0.021574051
0.021632594
0.02156141
0.021673606
0.021685894
0.021668047
0.02164687
0.021618437
0.021588548
0.02168046
0.021557942
0.021528267
0.021508694
0.021493949
0.021488427
0.021476451
0.021469262
0.021408001
0.021259801
0.02167593
0.021007988
0.020637439
0.020108317
0.021159286
0.019351231
0.021246768
0.021163265
0.021256851
0.021254746
0.021342704
0.021424483
0.02150074
0.021490407
0.021611535
0.021553958
0.021615147
0.021611492
0.021625192
0.02167952
0.021616083
0.021696321
0.021695731
0.021658311
0.021678919
0.021626175
0.021591937
0.021558642
0.02152747
0.021502038
0.021488512
0.021476835
0.021450494
0.021450761
0.021410629
0.021294101
0.021071911
0.02170762
0.020714898
0.020176761
0.019402326
0.021252862
0.018390156
0.021344259
0.021254521
0.021343661
0.021346401
0.021428837
0.021510717
0.021580149
0.021565061
0.02167076
0.021623178
0.02167927
0.021673551
0.021678795
0.021721766
0.021669965
0.021713478
0.021693356
0.021632726
0.021668493
0.021590794
0.021552027
0.021520228
0.021493151
0.021473892
0.021467638
0.021446588
0.02142834
0.021417218
0.021391264
0.021305035
0.021115996
0.020774771
0.02173182
0.020243819
0.019457569
0.018417565
0.021350006
0.01724954
0.021443687
0.021349524
0.021433382
0.021439284
0.021516521
0.021603321
0.02165452
0.021635693
0.021725868
0.021687891
0.021737154
0.021729953
0.021718694
0.02175245
0.021736293
0.02172168
0.021718443
0.021681864
0.02170071
0.021648216
0.02159519
0.02154255
0.021506265
0.021479826
0.021458924
0.021444637
0.021421132
0.021393954
0.021386437
0.021359742
0.021290815
0.021128754
0.020825221
0.020306749
0.021746753
0.019520839
0.018465688
0.017263609
0.021447607
0.016093832
0.021538653
0.021444817
0.021521941
0.021528451
0.021604447
0.021679601
0.021714558
0.021700385
0.021772614
0.021746316
0.021785093
0.021777782
0.021763206
0.021773512
0.021774893
0.021763965
0.021723625
0.021672554
0.021698876
0.021624272
0.021541213
0.021590888
0.02149348
0.021463393
0.021441394
0.021426243
0.021398944
0.021370983
0.021357178
0.021330363
0.021269162
0.021129367
0.020854
0.020373093
0.019600167
0.021754944
0.018532066
0.017305881
0.016107861
0.021541211
0.015070223
0.021628647
0.021536227
0.021603701
0.021611273
0.021677397
0.021714943
0.021736983
0.021767514
0.021761569
0.021812832
0.021793559
0.02182184
0.021816217
0.021794034
0.021785615
0.02179813
0.021806191
0.021721718
0.021657474
0.021695059
0.021601226
0.02154126
0.021490545
0.021451064
0.021425332
0.021408632
0.021381841
0.021340022
0.021356338
0.021307685
0.021248524
0.021129991
0.020883027
0.020440844
0.019709873
0.018636936
0.021756477
0.017378736
0.016146954
0.015079424
0.02162819
0.014210659
0.021709931
0.021621316
0.0216699
0.021685575
0.021722552
0.021768077
0.021776028
0.021781018
0.021808315
0.021806692
0.021842975
0.021829144
0.021846142
0.021841226
0.021817885
0.021813274
0.021787345
0.021836328
0.021706818
0.021638532
0.02156173
0.021494875
0.021448793
0.021414635
0.021395397
0.021371973
0.021300442
0.021331582
0.021351045
0.0212346
0.021129317
0.020916635
0.020516294
0.019840867
0.018801898
0.017498017
0.021745624
0.016228
0.015121152
0.01422063
0.021704263
0.013467648
0.021777711
0.021696223
0.021742164
0.021795794
0.021814381
0.02181895
0.02183818
0.021820919
0.021839015
0.021854814
0.021853066
0.021861473
0.021857688
0.021833617
0.021815419
0.021782047
0.021850787
0.021675789
0.021605042
0.021528295
0.02145683
0.021413207
0.021388755
0.021369955
0.021297457
0.021228164
0.021332781
0.021353751
0.021130753
0.02094844
0.020596543
0.019982228
0.019011962
0.017683019
0.016345568
0.021729516
0.015200154
0.014263002
0.013486597
0.02176944
0.012768835
0.021833825
0.021757913
0.021839174
0.021814631
0.021851105
0.021862714
0.02184822
0.021854651
0.021860578
0.021863488
0.021857756
0.021865198
0.02186475
0.021835786
0.021811332
0.021775417
0.021844151
0.021650099
0.021694779
0.021581388
0.021498397
0.021427395
0.021390785
0.0213776
0.021315187
0.021279525
0.021133635
0.021232192
0.021337981
0.02136596
0.020977662
0.020673532
0.020127988
0.019237017
0.017955947
0.016491126
0.015302172
0.021731108
0.014329858
0.013523693
0.012795595
0.021825625
0.012054218
0.021877124
0.021859175
0.021871668
0.021877143
0.021883562
0.021871654
0.021870066
0.021869054
0.021863512
0.021856019
0.021868597
0.021863308
0.02183659
0.021801123
0.021769668
0.021845541
0.021646616
0.021692061
0.021557134
0.021612861
0.021500415
0.021406766
0.021460029
0.021400013
0.0213131
0.02127999
0.02113655
0.021001425
0.021222908
0.021353447
0.02139293
0.02074477
0.020270998
0.019471091
0.018270214
0.016701166
0.015406729
0.014406412
0.021721249
0.013579038
0.012828975
0.012074046
0.021869791
0.01128569
0.021908769
0.021891768
0.021897411
0.021899022
0.021891975
0.021880615
0.021875422
0.021869793
0.021857638
0.021842415
0.021865105
0.021858089
0.021819385
0.021793358
0.021756944
0.021837248
0.021653917
0.021688323
0.021562337
0.021602306
0.021525235
0.021439708
0.021484587
0.021441392
0.021328242
0.02129048
0.021137575
0.021018142
0.020804
0.021234228
0.021385893
0.021441874
0.020405592
0.019704982
0.018617011
0.017107536
0.015444756
0.014469675
0.013637844
0.02171377
0.012878599
0.012108565
0.011300279
0.021900576
0.010485205
0.021928293
0.021913424
0.021912632
0.021904333
0.021892287
0.021883427
0.021873818
0.021864826
0.021851498
0.021830948
0.021857098
0.021847595
0.021817967
0.021782385
0.021746011
0.021634558
0.021679625
0.021587041
0.021543382
0.021489916
0.021361081
0.021318803
0.021029188
0.021154168
0.020849789
0.020520387
0.021260124
0.021446469
0.021502421
0.019926872
0.01896696
0.017646471
0.01611594
0.015312011
0.01449578
0.013690589
0.01293571
0.021717079
0.012161255
0.01133554
0.010499231
0.021920654
0.0097260319
0.021936943
0.021925074
0.021915561
0.021901577
0.021884211
0.02187848
0.021865466
0.021852914
0.021833278
0.021803105
0.021821451
0.021842717
0.021831087
0.021803238
0.021769776
0.021740873
0.021631828
0.021682385
0.021596071
0.021552379
0.021419574
0.021369646
0.021048822
0.020885156
0.021180171
0.020610719
0.020116522
0.021307694
0.02151042
0.019290828
0.018109954
0.016639461
0.015327773
0.014529039
0.013740096
0.012997511
0.01222503
0.021733551
0.021708993
0.011393105
0.010535463
0.009740733
0.021930452
0.0090897033
0.021934627
0.021926317
0.021910244
0.021889993
0.021866512
0.021865508
0.021848213
0.02183342
0.021815712
0.021787357
0.021804434
0.021821373
0.021806256
0.021783912
0.021763137
0.021751151
0.021645188
0.021678984
0.021610077
0.021596484
0.021560053
0.021484954
0.021419827
0.020915967
0.021075128
0.020678049
0.02122685
0.020264318
0.019554882
0.021360825
0.02153252
0.018526077
0.017266932
0.015540555
0.014570676
0.013791326
0.013065312
0.012303332
0.01146521
0.021743293
0.021721078
0.010596991
0.0097789335
0.0091065399
0.0219311
0.0086219021
0.021925889
0.021919308
0.021895714
0.021868659
0.021839931
0.021843617
0.021822797
0.021806307
0.021791676
0.021766149
0.021779243
0.021792073
0.021778277
0.021768684
0.021759965
0.021740007
0.021657756
0.02169509
0.021628294
0.021650784
0.021613104
0.021587699
0.021524807
0.021457862
0.020948248
0.020731189
0.021121824
0.020370969
0.021287389
0.019755472
0.018810893
0.021410699
0.021576174
0.017748754
0.016753752
0.014608353
0.01564513
0.013832116
0.013126193
0.01241118
0.011555404
0.010677643
0.02171819
0.0098394335
0.0091421253
0.0086397233
0.021923728
0.0083218881
0.021908339
0.021902678
0.021871686
0.021837883
0.021804035
0.021812918
0.021789634
0.021771317
0.021762355
0.021737531
0.021747481
0.021754374
0.021735931
0.021751817
0.021740402
0.021713067
0.021684959
0.021706068
0.021638033
0.021657542
0.021611417
0.021534123
0.021466781
0.020996725
0.020784718
0.020452297
0.021189457
0.019907138
0.021352406
0.019017148
0.017883824
0.02159804
0.016789195
0.013866913
0.014650369
0.015697672
0.013188258
0.012511728
0.011695742
0.010785063
0.0099209525
0.021702889
0.0091964587
0.0086692599
0.0083341958
0.021906835
0.008157276
0.021879709
0.021876127
0.021838096
0.021797399
0.021757814
0.021773118
0.021747256
0.021724066
0.021717716
0.021689998
0.021702496
0.021697317
0.021669063
0.021724228
0.021717226
0.021693217
0.021674693
0.02168884
0.021656633
0.021630389
0.021483948
0.021588993
0.021418211
0.021069112
0.020848355
0.020533401
0.020030449
0.021268088
0.01920325
0.018039893
0.021628817
0.016920209
0.013242708
0.013897766
0.014715302
0.015789729
0.012620934
0.011951997
0.010862644
0.010005452
0.0092670738
0.021651768
0.0087147298
0.0083569278
0.0081689349
0.021879772
0.0080822028
0.021841823
0.021840297
0.021793776
0.021745475
0.021697028
0.02172129
0.021687381
0.021650747
0.021646478
0.021615427
0.021627461
0.02160592
0.021565366
0.021683301
0.021675706
0.021668779
0.021655998
0.021646911
0.021553569
0.021434014
0.02161959
0.021351375
0.021160178
0.020929777
0.020628722
0.020143674
0.019401913
0.018218037
0.021640865
0.017070968
0.012690122
0.013274193
0.013925964
0.014773945
0.015868482
0.012141577
0.011563438
0.010071447
0.010865156
0.0093420644
0.0087731941
0.021609035
0.021601869
0.0083946664
0.0081847501
0.0080932954
0.021842154
0.0080560434
0.021794247
0.021793519
0.021736629
0.021677382
0.021613167
0.02164823
0.021596282
0.021535437
0.021537152
0.021505783
0.021508557
0.021466297
0.021412958
0.021618715
0.021645525
0.021609755
0.021515858
0.021607016
0.021364692
0.021623188
0.021259126
0.021037295
0.020743314
0.020286037
0.019578112
0.01846425
0.021619247
0.017175435
0.01214855
0.012722423
0.013291552
0.013955287
0.014815786
0.015903443
0.011549132
0.010120803
0.0094123607
0.010887481
0.0088360661
0.0084418789
0.021516113
0.021522282
0.021533562
0.008213382
0.0081032651
0.0080678979
0.021794413
0.0080596857
0.02173266
0.021732941
0.021662543
0.02158538
0.021492205
0.021540065
0.021461385
0.021360494
0.021365918
0.02131656
0.021375956
0.021266648
0.021188109
0.021563843
0.02158616
0.021460672
0.021624226
0.021292782
0.021593217
0.021608804
0.021159594
0.020888962
0.020456677
0.019794283
0.018877576
0.017149527
0.012176373
0.012742434
0.013305228
0.013977541
0.014842153
0.015903105
0.011591435
0.010201367
0.0094863118
0.008902147
0.010955801
0.0084914124
0.0082472171
0.021403167
0.021379289
0.021456456
0.0081240482
0.0080755413
0.008070338
0.021733988
0.0080744582
0.021653438
0.02165561
0.02156443
0.021455957
0.021321246
0.021386171
0.021268277
0.021106082
0.021098187
0.021116291
0.021195621
0.021003553
0.020888438
0.021520064
0.021549458
0.021635609
0.021412188
0.021629306
0.021231624
0.021581049
0.021048715
0.020641666
0.020018501
0.019212537
0.018333073
0.017169624
0.012211586
0.012760347
0.013320863
0.013999914
0.014863981
0.01595148
0.011653074
0.0095718367
0.010298375
0.0089711919
0.0085426336
0.011047096
0.0082805006
0.0081474369
0.021211054
0.021282505
0.021379002
0.0080900894
0.0080752898
0.008086648
0.021655485
0.0080971463
0.021547272
0.021553887
0.021427493
0.021274637
0.021094092
0.021181629
0.020967411
0.020802356
0.020726971
0.020728269
0.020991706
0.020963959
0.020673762
0.020543894
0.021485444
0.021623172
0.021522595
0.021628359
0.021372962
0.021579277
0.021174552
0.02100722
0.020244328
0.020780451
0.019344777
0.018369369
0.017207922
0.01225019
0.012783175
0.013344541
0.014026727
0.014900339
0.016048229
0.011721876
0.009046706
0.0096722286
0.010409838
0.0085934764
0.0083133229
0.01114642
0.0081678078
0.0081057667
0.021042327
0.021162355
0.021313887
0.0080857248
0.0080907463
0.008107021
0.021551905
0.0081187169
0.02139703
0.021410019
0.021235528
0.0210279
0.02083907
0.020931316
0.020579475
0.020433145
0.020372033
0.020652054
0.020733799
0.020744901
0.02029388
0.020150477
0.02146341
0.021606731
0.02167167
0.021502595
0.021581844
0.021655735
0.02133349
0.02108778
0.020893889
0.020444508
0.019565074
0.018457903
0.017211695
0.012293737
0.012815823
0.01337458
0.014057016
0.014983409
0.016217477
0.011794115
0.0091334435
0.0086483079
0.0097855169
0.010529395
0.0083438901
0.0081843414
0.011248107
0.0081162661
0.0080959771
0.020871601
0.02105776
0.021267689
0.0080972379
0.0081102323
0.0081248917
0.02140426
0.0081419534
0.02119052
0.021207936
0.020969039
0.020686348
0.020574969
0.02017599
0.020293109
0.020028486
0.020037348
0.020151922
0.02039475
0.020517541
0.01988954
0.019782479
0.021460508
0.02160978
0.021676936
0.021486853
0.021603776
0.021696683
0.021280272
0.020942014
0.020675076
0.019869195
0.018279534
0.017570827
0.012343936
0.012854145
0.013404439
0.014105413
0.015121209
0.016446058
0.011869357
0.0092302321
0.008710922
0.008377431
0.0099071286
0.01065157
0.0081964441
0.0081199259
0.011350253
0.0080984191
0.008101765
0.020726253
0.020984412
0.021248649
0.0081139238
0.0081274741
0.0081449247
0.021199162
0.0081660986
0.020917604
0.020931405
0.020597112
0.020287478
0.019933788
0.019766584
0.019970299
0.019612048
0.019693039
0.019980973
0.020119479
0.020335922
0.019489791
0.019408296
0.021473806
0.021609707
0.021700937
0.021464101
0.021635668
0.02172754
0.021194554
0.020738068
0.020322828
0.019142755
0.018381635
0.012398372
0.012894284
0.013441064
0.014166365
0.015305015
0.016553229
0.011946582
0.0093365605
0.0087822363
0.0084152457
0.0082091714
0.010034167
0.010773964
0.0081174262
0.0080929483
0.011452615
0.0080990913
0.0081159425
0.020625564
0.020946888
0.021252145
0.0081293632
0.008145585
0.0081663471
0.020924767
0.0081815895
0.020575382
0.020580428
0.020170498
0.019990202
0.019535226
0.019708558
0.019355738
0.019631851
0.019210373
0.019493019
0.01972005
0.019917612
0.020214223
0.019127456
0.019131125
0.021500094
0.021627502
0.021727133
0.021417114
0.021668532