/*--------------------------------*- C++ -*----------------------------------*\
  =========                 |
  \\      /  F ield         | OpenFOAM: The Open Source CFD Toolbox
   \\    /   O peration     | Website:  https://openfoam.org
    \\  /    A nd           | Version:  7
     \\/     M anipulation  |
\*---------------------------------------------------------------------------*/
FoamFile
{
    version     2.0;
    format      ascii;
    class       volScalarField;
    location    "9.997";
    object      T;
}
// * * * * * * * * * * * * * * * * * * * * * * * * * * * * * * * * * * * * * //

dimensions      [0 0 0 1 0 0 0];

internalField   nonuniform List<scalar> 
192336
(
47.879225
47.879209
47.88422
47.874442
47.883383
47.860609
47.874993
47.88256
47.825044
47.859607
47.874324
47.814169
47.751268
47.834938
47.743947
47.797691
47.649749
47.78546
47.645223
47.723978
47.506677
47.691259
47.505171
47.632179
47.312986
47.515144
47.323757
47.483748
47.486342
47.05191
47.295054
47.325873
47.069371
47.277872
46.731514
47.057048
47.198088
47.121364
46.728796
47.042859
46.372831
46.795606
47.009075
46.956005
46.6768
46.351405
46.792975
45.994721
46.511184
46.775943
46.727477
46.302447
45.977441
46.513973
45.611959
46.203125
46.509863
46.515612
46.231355
45.929557
45.5986
46.21022
45.234102
45.869314
46.212984
46.208704
45.856235
45.561526
45.224394
45.878108
44.873887
45.514376
45.889843
45.914271
45.50035
45.682592
45.199646
44.868877
45.522029
44.543264
45.146686
45.530177
45.551447
45.16463
45.418277
44.853259
44.54333
45.150796
44.248095
44.774634
45.146463
45.136696
44.84068
45.112803
45.069807
44.532156
44.252889
44.777838
43.989197
44.407954
44.763905
44.731563
44.845718
44.52124
44.671197
44.24306
43.998612
44.41214
43.768675
44.056159
44.408846
44.411689
44.575367
44.516397
44.228648
44.343434
43.989944
43.779578
44.064884
43.591554
43.727462
44.076154
44.116109
44.214433
44.175138
43.968187
43.770376
43.596512
43.740593
43.439405
43.427552
43.770028
43.827258
43.986265
43.867346
43.886016
43.751393
43.582242
43.44552
43.442673
43.314992
43.159402
43.478737
43.534399
43.732718
43.779795
43.614212
43.689706
43.56506
43.431938
43.319922
43.175344
43.218303
42.922935
43.21794
43.29241
43.563648
43.528451
43.403961
43.538589
43.403846
43.307984
43.223876
42.940558
43.143711
42.717562
42.989152
43.069737
43.255391
43.423057
43.254992
43.17295
43.381273
43.328785
43.285345
43.216167
43.153848
42.737762
43.093888
42.550486
42.78419
42.856042
43.008621
43.259164
43.032169
42.941613
43.23892
43.261185
43.238492
43.205981
43.149127
43.106289
42.566828
43.061592
42.419852
42.604417
42.664166
42.828186
43.048901
42.737631
43.085507
43.188792
43.153666
43.143307
43.103066
43.073865
42.430915
43.041816
42.311694
42.457736
42.510511
42.701061
42.815507
42.963984
42.590909
42.961183
43.122069
43.060853
43.09654
43.072477
43.054213
42.327453
43.033844
42.237727
42.345849
42.391213
42.569984
42.70057
42.841025
42.466283
42.81362
43.069943
42.992552
43.061712
43.055242
43.046696
42.252392
43.033762
42.209279
42.266924
42.305181
42.467394
42.588194
42.715825
42.370784
42.847124
42.706769
43.028836
42.971444
43.042947
43.048327
43.046271
42.211562
43.043099
42.200417
42.220505
42.251576
42.388234
42.493623
42.601314
42.30562
42.871549
42.637399
42.995042
42.879895
43.03551
43.048427
43.056477
42.198451
43.063995
42.193797
42.204701
42.227117
42.33595
42.424509
42.529791
42.269235
42.740274
42.584684
42.898239
42.996189
42.776825
43.040108
43.060506
43.078805
42.196422
43.095532
42.198044
42.203428
42.222219
42.311783
42.385759
42.471657
42.257119
42.55023
42.814284
42.931373
43.012567
42.660581
43.059601
43.086832
43.11202
42.199326
43.136403
42.210121
42.207331
42.225268
42.305286
42.370094
42.452706
42.256596
42.519825
42.724949
42.858277
42.965698
43.045603
42.606881
43.094003
43.124332
43.154758
42.209994
43.183851
42.229008
42.217707
42.232918
42.305512
42.366003
42.440737
42.260488
42.509326
42.7625
42.90017
43.010131
43.089634
42.574383
43.138241
43.170244
43.205585
42.227279
43.235139
42.250118
42.232573
42.244023
42.308233
42.363481
42.432169
42.268093
42.494237
42.811435
42.659493
42.949193
43.06091
43.1404
42.575915
43.191082
43.225209
43.263469
42.246897
43.292724
42.270703
42.24975
42.257722
42.313701
42.362643
42.426193
42.278167
42.483092
42.865514
42.710185
43.000804
43.116043
43.197102
42.579708
43.25058
43.289011
43.326783
42.266207
43.352508
42.288806
42.267494
42.272478
42.320044
42.363261
42.419516
42.289368
42.483493
42.753295
42.914898
43.056885
43.173987
43.258122
42.555759
43.315959
43.357171
43.390175
42.28414
43.4097
42.304856
42.284836
42.287413
42.32746
42.367149
42.419809
42.301089
42.476849
42.814714
42.642825
42.971513
43.114867
43.234417
43.322554
42.530654
43.384136
43.422453
43.450713
42.300638
43.463613
42.319701
42.301235
42.301664
42.334936
42.371175
42.42003
42.312283
42.466
42.716777
42.872914
42.577993
43.027385
43.174596
43.297563
43.387751
42.516184
43.448826
43.482298
43.506148
42.316226
43.51181
42.333544
42.316334
42.315378
42.342278
42.37363
42.41706
42.323089
42.458994
42.604115
42.76873
42.925805
43.086015
43.235856
43.36083
43.448699
42.516556
43.505391
43.535459
43.551924
42.331272
43.55277
42.347274
42.330171
42.329205
42.350279
42.37528
42.413109
42.334475
42.455834
42.594968
42.683025
42.824167
42.983211
43.14534
43.297138
43.420236
43.498496
42.519376
43.552179
43.578228
43.5874
42.345971
43.587302
42.361852
42.343568
42.342746
42.358128
42.376299
42.407879
42.345638
42.454858
42.589977
42.747559
42.663508
42.876536
43.040217
43.205373
43.354715
43.465203
43.528856
42.519347
43.581556
43.606735
43.614604
42.359816
43.618094
42.376855
42.356927
42.356659
42.369751
42.383225
42.39068
42.357246
42.463262
42.409871
42.588177
42.776008
42.676326
42.929984
43.098015
43.26256
43.403462
43.493734
43.520608
42.517606
43.556999
43.604284
43.626899
43.638271
42.374658
43.644567
42.393982
42.371435
42.369732
42.371304
42.388878
42.399628
42.484767
42.433853
42.591744
42.814207
42.687424
42.98676
43.155637
43.314449
43.443791
43.479811
42.528945
43.585066
43.511245
43.624304
43.643981
43.657925
42.391304
43.660768
42.412773
42.387862
42.386767
42.383618
42.406411
42.416045
42.458036
42.514487
42.608172
42.870318
42.681037
43.044059
43.209915
43.36107
43.40407
42.552488
43.599539
43.539643
43.439267
43.63497
43.657207
43.668486
42.410953
43.664179
42.434473
42.407829
42.407186
42.406282
42.43328
42.442142
42.49046
42.552553
42.634097
42.780198
42.942286
42.682794
43.103508
43.260628
43.306896
42.586412
43.6085
43.554859
43.468201
43.347076
43.643877
43.664476
43.668689
42.433256
43.653119
42.460928
42.430535
42.430126
42.430416
42.466541
42.475873
42.529999
42.595881
42.666356
42.750029
42.873763
43.009653
42.720022
43.157855
43.207501
42.626498
43.615581
43.565296
43.48852
43.382459
43.253751
43.649614
43.663101
43.65523
42.46107
43.625423
42.491875
42.459165
42.459735
42.461527
42.505118
42.515507
42.575212
42.642592
42.71179
42.844383
42.934791
43.071377
42.762525
43.124521
42.669912
43.621833
43.574007
43.505513
43.413217
43.299222
43.174668
43.648605
43.648641
43.6244
42.494041
43.58561
42.527967
42.492714
42.49452
42.49817
42.548651
42.56047
42.622792
42.68572
42.753379
42.833894
42.996982
42.809137
43.063105
42.709525
43.584509
43.624278
43.523469
43.443728
43.342643
43.229104
43.110017
43.635
43.615562
43.582464
42.532144
43.536877
42.567019
42.531575
42.534583
42.540002
42.594034
42.607298
42.668068
42.724947
42.770787
42.872495
42.939047
42.836488
43.031054
42.73725
43.593378
43.544596
43.618331
43.475239
43.386948
43.284252
43.163951
43.058982
43.60405
43.571862
43.532771
42.57286
43.484678
42.604172
42.573258
42.577394
42.584024
42.637869
42.651788
42.707885
42.755751
42.808479
42.770836
42.898527
42.860678
42.991094
43.565167
43.59777
43.50797
43.598864
43.429421
43.337426
43.232932
43.108201
43.055341
43.056191
43.563834
43.524434
43.482154
42.61348
43.431864
42.639173
42.614466
42.619845
42.627076
42.676942
42.690344
42.740022
42.78411
42.806748
42.905668
42.865782
42.955645
43.537819
43.579514
43.592155
43.468109
43.570467
43.382114
43.28659
43.179945
43.089781
43.050415
43.523482
43.478234
43.432717
42.649624
43.382932
42.672546
42.65211
42.658592
42.66608
42.709406
42.721646
42.76353
42.806531
42.831598
42.897377
42.86586
42.990696
42.928921
43.557519
43.499845
43.582647
43.58674
43.418314
43.53184
43.32605
43.225134
43.126751
43.063755
43.483492
43.435446
43.388882
42.68099
43.342472
42.702202
42.683837
42.691136
42.698952
42.735641
42.747524
42.784692
42.820058
42.842357
42.894512
42.870652
43.009894
42.951167
43.519136
43.563575
43.446197
43.578376
43.557829
43.356909
43.531253
43.496359
43.260672
43.160904
43.077953
43.450679
43.402711
43.355997
42.708849
43.316571
42.728339
42.71088
42.717938
42.725753
42.75731
42.769334
42.801874
42.828297
42.848241
42.897772
42.871723
43.016937
42.970171
42.931484
43.525951
43.462204
43.568995
43.37879
43.559611
43.283366
43.544233
43.515087
43.474349
43.181577
43.068938
43.42909
43.383157
43.339505
42.733219
43.308068
42.751489
42.734661
42.740577
42.747719
42.776691
42.787585
42.812891
42.834485
42.851524
42.898246
42.873858
43.022348
42.97366
42.934367
43.465985
43.522177
43.391025
43.300108
43.522711
43.202905
43.526972
43.492599
43.458349
43.114529
43.055127
43.419135
43.376755
43.336033
42.754832
43.314411
42.771588
42.756398
42.761328
42.767657
42.792495
42.801178
42.821106
42.839602
42.853848
42.900182
42.877415
42.978681
43.018474
42.936103
43.457786
43.394789
43.489558
43.31391
43.227257
43.506665
43.147892
43.492845
43.473981
43.451366
43.091175
43.052724
43.418468
43.380462
43.345997
42.774677
43.333482
42.790287
42.776127
42.780528
42.785511
42.8047
42.811418
42.828069
42.845449
42.860896
42.902749
42.884772
42.977985
43.012608
42.937744
43.449401
43.393088
43.321562
43.476357
43.239077
43.149677
43.457886
43.459981
43.468946
43.464139
43.450886
43.04996
43.425642
43.394676
43.369727
42.792955
43.366754
42.806945
42.794713
42.797788
42.800317
42.815943
42.819849
42.837338
42.854147
42.86458
42.908352
42.900841
42.875166
42.977201
43.013283
42.939585
43.391193
43.438836
43.32445
43.251303
43.167894
43.088256
43.425028
43.415939
43.447339
43.458644
43.461613
43.456696
43.05071
43.440815
43.41814
43.401858
42.808444
43.402576
42.822004
42.810826
42.811864
42.81515
42.828199
42.832015
42.849599
42.868398
42.873328
42.918223
42.919685
42.891359
42.976984
43.010106
42.94384
43.384162
43.325182
43.259716
43.187524
43.115118
43.377126
43.410582
43.371953
43.43705
43.453712
43.464353
43.46822
43.060316
43.460597
43.446504
43.436229
42.822915
43.434414
42.83838
42.822736
42.825631
42.845671
42.834933
42.846668
42.868599
42.889765
42.891009
42.931916
42.914791
42.944559
42.978376
43.011013
42.951361
43.325032
43.264067
43.200174
43.131201
43.324723
43.370362
43.405115
43.325137
43.433012
43.454265
43.471998
43.482143
43.052466
43.482855
43.476542
43.467669
42.838226
43.45318
42.858343
42.837271
42.832035
42.859012
42.848146
42.869249
42.892404
42.916004
42.914129
42.95083
42.94252
42.976402
42.98388
43.015304
42.963305
43.269328
43.209646
43.147263
43.083157
43.274389
43.368152
43.327879
43.402332
43.280042
43.431853
43.459158
43.482028
43.498399
43.049341
43.506553
43.503256
43.487462
42.85827
43.452685
42.8816
42.854453
42.877467
42.882566
42.898637
42.922204
42.949248
42.944095
42.974506
42.97535
43.006146
42.993794
43.023901
42.979902
43.218818
43.159117
43.102106
43.228398
43.330012
43.36771
43.287117
43.401184
43.239117
43.434419
43.467606
43.49412
43.516434
43.063335
43.527396
43.519623
43.489082
42.881749
43.429747
42.910727
42.87847
42.904287
42.909383
42.929269
42.957691
42.987467
42.979168
42.999381
43.008739
43.031934
43.014325
43.008779
43.037813
43.001696
43.170417
43.113938
43.183444
43.293656
43.333337
43.36856
43.250006
43.403327
43.201798
43.440587
43.477267
43.507844
43.531321
43.076915
43.539226
43.519583
43.46957
42.91053
43.394181
42.944406
42.90908
42.936258
42.941227
42.966767
42.998243
43.030281
43.018009
43.028859
43.04442
43.063809
43.043222
43.027201
43.055569
43.024564
43.124251
43.149183
43.300929
43.260616
43.337495
43.371955
43.217359
43.408223
43.174106
43.448506
43.487582
43.519202
43.539085
43.090322
43.537906
43.503615
43.440775
42.944233
43.374214
42.982418
42.942917
42.97413
42.979249
43.008556
43.043715
43.075968
43.059931
43.057345
43.083867
43.100523
43.07606
43.048467
43.076691
43.049192
43.124294
43.145749
43.271186
43.309014
43.231382
43.342851
43.376388
43.192133
43.414531
43.161366
43.455652
43.494535
43.524812
43.535413
43.105939
43.526329
43.481883
43.424701
42.982073
43.409631
43.025651
42.981472
43.017196
43.022915
43.056159
43.092447
43.125088
43.10459
43.09013
43.126283
43.142246
43.113342
43.072965
43.100116
43.076952
43.129955
43.153972
43.282588
43.244702
43.31551
43.209041
43.347016
43.380695
43.179082
43.41896
43.458826
43.496095
43.517991
43.525
43.124387
43.509902
43.469672
43.455817
43.024953
43.568699
43.075279
43.025241
43.066445
43.072902
43.107641
43.14522
43.177563
43.152546
43.126691
43.172759
43.187548
43.154442
43.100135
43.125532
43.108122
43.144503
43.163995
43.25762
43.289378
43.22433
43.319054
43.196872
43.349144
43.382996
43.175186
43.420155
43.457686
43.488203
43.506358
43.512281
43.14653
43.498915
43.500565
43.623701
43.075257
44.061085
43.131091
43.075585
43.120298
43.128206
43.163288
43.201505
43.234021
43.20406
43.169458
43.222982
43.236862
43.200706
43.131399
43.154221
43.145896
43.163805
43.181299
43.236601
43.264491
43.291446
43.212575
43.319534
43.193659
43.350111
43.38246
43.415184
43.448566
43.454043
43.461442
43.493857
43.502275
43.171965
43.52727
43.663443
44.110253
43.132855
45.115524
43.194384
43.132203
43.178445
43.18846
43.222901
43.261895
43.29386
43.259145
43.216153
43.276033
43.28872
43.25012
43.167589
43.187686
43.188272
43.185747
43.197519
43.223426
43.242428
43.264874
43.290714
43.208978
43.318436
43.346087
43.376716
43.403059
43.40826
43.415104
43.456842
43.484978
43.528506
43.19927
43.671183
44.129783
45.142439
43.196882
46.969223
43.263442
43.19474
43.240656
43.253616
43.28644
43.325329
43.356377
43.316655
43.265799
43.330678
43.341386
43.301351
43.209342
43.226602
43.235073
43.20623
43.214995
43.227947
43.218051
43.242283
43.263432
43.286722
43.310815
43.336221
43.363351
43.38154
43.370693
43.413524
43.453477
43.504125
43.65026
43.226858
44.108219
45.123797
46.972561
43.265829
49.786129
43.334559
43.262263
43.306332
43.321935
43.351935
43.391377
43.417262
43.374546
43.315291
43.38494
43.392545
43.351951
43.257791
43.261223
43.283174
43.229
43.224003
43.22841
43.222805
43.239944
43.255476
43.275673
43.298042
43.32289
43.347272
43.336322
43.328645
43.359953
43.406556
43.465813
43.610293
44.040708
43.253744
45.049227
46.904939
49.755104
43.337063
53.460343
43.405975
43.332455
43.373606
43.390503
43.418542
43.462051
43.474434
43.429782
43.363113
43.43599
43.439963
43.399583
43.304288
43.289114
43.30113
43.33028
43.248686
43.226261
43.235145
43.225347
43.226454
43.228329
43.240921
43.260608
43.283869
43.308063
43.295601
43.278833
43.309521
43.352847
43.413934
43.549475
43.940012
44.895944
43.278063
46.746511
49.635389
53.396542
43.407555
57.586501
43.473058
43.402152
43.439005
43.455303
43.486555
43.519901
43.52149
43.480669
43.406998
43.482115
43.481416
43.442553
43.347275
43.314783
43.330401
43.373106
43.26825
43.232099
43.245956
43.224311
43.212789
43.220134
43.211997
43.225055
43.245629
43.269934
43.25748
43.240963
43.260839
43.301663
43.358115
43.479071
43.815619
44.673983
46.452395
43.300801
49.366541
53.206713
57.507022
43.473945
61.710991
43.535161
43.4677
43.498505
43.514097
43.546187
43.566094
43.561787
43.563688
43.528105
43.446514
43.521021
43.515396
43.480027
43.374364
43.33872
43.356744
43.412751
43.282311
43.238284
43.257185
43.223354
43.205952
43.196542
43.1971
43.211602
43.233793
43.224067
43.221924
43.211437
43.252917
43.304992
43.408571
43.692902
44.42575
46.03948
48.904605
43.3199
52.830534
57.270108
61.624938
43.534225
65.562219
43.590243
43.527207
43.54757
43.566012
43.586679
43.615544
43.604873
43.592334
43.605751
43.56304
43.481694
43.551505
43.540266
43.509331
43.400206
43.379862
43.358761
43.445791
43.287179
43.244942
43.213758
43.193173
43.184574
43.186174
43.203095
43.196676
43.210509
43.195196
43.188755
43.255563
43.342336
43.579804
44.193347
45.587023
48.256154
52.233017
43.334676
56.821682
61.387571
65.490045
43.586201
69.181887
43.635988
43.57862
43.606047
43.641951
43.643615
43.631523
43.639487
43.602708
43.587183
43.511457
43.573672
43.559065
43.530439
43.422391
43.396581
43.377549
43.469496
43.277504
43.239468
43.207392
43.18498
43.176594
43.181484
43.179747
43.17432
43.209141
43.177691
43.176411
43.283662
43.475472
43.987632
45.167125
47.518538
51.414108
56.159677
43.34639
60.937293
65.290698
69.144674
43.630399
72.866754
43.673881
43.620902
43.670229
43.658988
43.667337
43.665364
43.64009
43.622042
43.606404
43.544386
43.510607
43.589509
43.570975
43.434827
43.413693
43.396597
43.477755
43.274164
43.310715
43.237295
43.202021
43.180045
43.174491
43.175578
43.165744
43.158574
43.23004
43.172726
43.169964
43.175319
43.381255
43.79961
44.793943
46.818613
50.374185
55.349865
60.284784
43.369001
64.9028
68.993576
72.864349
43.66829
77.068787
43.703291
43.688867
43.691903
43.686308
43.682288
43.655878
43.637885
43.619852
43.54927
43.521988
43.60143
43.580054
43.446523
43.435151
43.417017
43.486168
43.28821
43.32715
43.231752
43.265091
43.217164
43.180363
43.199502
43.183495
43.156355
43.143804
43.181012
43.295333
43.137265
43.171496
43.185272
43.625703
44.449567
46.172054
49.301487
54.353559
59.555246
64.36161
43.384586
68.68428
72.756852
77.070476
43.698178
82.184638
43.72503
43.710833
43.709777
43.705087
43.693966
43.667643
43.650017
43.63059
43.558547
43.546788
43.611296
43.591452
43.466056
43.459636
43.434847
43.523906
43.307032
43.342609
43.251748
43.265126
43.250104
43.196685
43.221548
43.203413
43.158244
43.139639
43.13924
43.219041
43.467516
43.124216
43.184201
43.212213
44.130762
45.573187
48.237747
52.751557
59.064709
63.794525
68.233542
43.403713
72.513194
76.989334
82.170119
43.719342
88.323951
43.740085
43.726331
43.723661
43.716064
43.703729
43.678377
43.66044
43.641674
43.582889
43.579452
43.624306
43.61266
43.501163
43.486457
43.46336
43.303721
43.354113
43.295358
43.280025
43.233647
43.170433
43.14766
43.157898
43.117711
43.333566
43.844719
43.123966
43.22056
43.251931
45.023782
47.264207
50.906323
56.088692
59.374701
63.345403
67.689919
72.09335
43.422885
76.777298
82.076791
88.284028
43.734399
95.106597
43.751107
43.738196
43.733144
43.724864
43.713944
43.688514
43.672672
43.657544
43.622305
43.6037
43.625095
43.64694
43.648026
43.545905
43.526941
43.512238
43.334834
43.382229
43.341108
43.295894
43.20582
43.173639
43.122567
43.231965
43.110576
43.610692
44.544779
43.140085
43.271204
46.404218
49.473914
54.045356
59.072516
62.847659
67.100938
71.482693
76.353871
43.4779
43.454594
81.849237
88.165614
95.046491
43.745688
101.70916
43.757425
43.746546
43.741205
43.735185
43.72965
43.702289
43.692229
43.685832
43.669938
43.663245
43.665987
43.687807
43.705944
43.594717
43.584498
43.585781
43.392179
43.424935
43.393051
43.352762
43.315407
43.258395
43.204193
43.169018
43.108603
43.437408
43.118126
44.166941
45.704388
43.164663
43.306103
48.26862
51.912005
57.953167
62.373634
66.473561
70.766726
75.626849
81.383265
43.548336
43.533359
87.873731
94.88145
101.63815
43.753673
107.27416
43.763551
43.754011
43.751774
43.75308
43.7591
43.72677
43.728241
43.737218
43.726403
43.749575
43.73803
43.758833
43.794326
43.662614
43.660578
43.656111
43.455166
43.492208
43.438793
43.465681
43.391977
43.35951
43.29876
43.23067
43.138161
43.317656
43.112063
43.891487
43.137418
45.175899
47.452497
43.193986
43.371714
50.38966
53.478654
61.889053
57.427981
65.905714
70.059786
74.606817
80.593129
87.311006
43.649471
94.523136
101.44987
107.22496
43.760904
111.35073
43.773977
43.764537
43.771348
43.78681
43.812385
43.771608
43.792473
43.824842
43.82531
43.872549
43.849309
43.871266
43.926183
43.75562
43.753712
43.743108
43.534225
43.58292
43.458638
43.512264
43.427802
43.312178
43.239759
43.128161
43.241909
43.697149
43.126653
44.769221
43.171752
46.860908
49.921167
43.439836
53.230905
65.398752
61.441921
57.044296
69.325984
73.634769
79.292356
86.431406
93.919807
43.786904
101.07758
107.0574
111.31401
43.771592
113.97011
43.793074
43.784417
43.808484
43.847396
43.901273
43.848751
43.898928
43.96257
43.973762
44.044144
44.012766
44.040048
44.121915
43.878477
43.874746
43.876066
43.606942
43.711141
43.567073
43.512346
43.293952
43.416109
43.222402
43.132951
43.200007
43.553595
44.461703
43.1575
46.32577
49.39639
43.566721
52.719481
68.677614
64.95846
60.971803
56.601746
72.601766
77.132759
85.329582
93.072966
100.48333
44.000858
106.71474
111.1748
113.95901
43.79161
115.49055
43.831042
43.823141
43.873851
43.946024
44.040006
43.972683
44.062577
44.167512
44.189353
44.283266
44.249938
44.291426
44.407955
44.041431
44.028837
43.707472
43.887996
43.634874
43.399588
43.284104
43.579462
43.209236
43.153973
43.180439
43.433679
44.225893
45.806146
48.828686
43.7275
52.178907
71.834843
68.179815
64.585552
60.596556
56.236285
75.616383
79.554773
92.171534
84.918527
99.670382
106.17504
44.233476
44.143092
110.90154
113.86381
115.50184
43.829952
116.34314
43.899092
43.890679
43.978867
44.096397
44.247578
44.16077
44.302997
44.470463
44.504376
44.598959
44.592263
44.662524
44.818431
44.254372
43.821515
44.062231
43.384098
43.557955
43.274295
43.81243
43.200545
43.182279
43.33961
43.978453
45.395801
48.141016
43.949975
51.805801
75.167224
71.301647
67.824762
64.286418
60.334195
56.066809
79.261278
91.242992
98.669663
84.260453
105.41659
110.47205
44.49055
44.537445
44.380742
113.67837
115.44193
116.36905
43.898034
116.85279
44.008051
43.998731
44.137311
44.318185
44.547977
44.43536
44.648964
44.921318
44.964726
45.099704
44.95879
45.178968
45.392403
44.244393
43.514115
43.366901
43.746834
43.274166
44.080368
43.910856
43.211018
43.28634
43.734345
44.93775
47.044277
51.889286
74.648389
70.89908
67.557875
64.068539
60.177876
56.060953
78.583789
90.080652
97.498155
104.4413
83.291565
109.85269
113.37018
44.806344
44.911877
44.637592
115.33134
116.32789
116.88513
44.007447
117.06368
44.174413
44.162652
44.369732
44.636815
44.97191
44.82476
45.143742
45.555313
45.667412
45.626332
45.422636
45.847097
46.157895
44.427475
43.483305
43.698941
43.363484
43.994776
43.296082
44.200084
43.245369
43.576238
44.531886
46.252527
48.477852
51.874313
74.118826
70.570273
67.342115
63.915364
60.107373
55.951671
77.812252
96.165857
88.771693
103.25846
109.02776
82.217454
112.90573
115.13357
45.354172
45.158537
44.898179
116.26124
116.85521
117.10126
44.173631
117.11537
44.419976
44.403525
44.703445
45.085563
45.533811
45.343611
45.890569
46.327425
46.5664
46.571429
45.967882
46.001997
46.684403
47.047982
44.599209
43.625753
43.472179
43.9926
43.379405
44.299947
43.368492
43.328789
44.228792
43.554232
46.013948
48.445136
51.885168
73.62531
70.280195
67.158507
63.812789
60.038337
55.763087
77.059586
101.92754
94.692058
87.413368
108.00098
112.28075
81.158714
114.8227
116.14122
45.814894
45.515463
45.143273
116.80494
117.08789
117.14931
44.419048
117.04086
44.773123
44.74892
45.176126
45.698049
46.167336
45.984756
46.874182
47.273462
47.532034
46.83894
46.62775
46.589229
47.660843
48.076678
44.743727
43.586799
43.767248
43.485897
44.366966
44.031545
43.439684
43.540387
43.528564
44.08661
45.702014
48.329506
52.042361
73.172767
70.018744
67.018545
63.749721
59.867984
55.411206
76.364926
100.48054
106.82588
93.161839
86.072228
111.48657
114.38564
80.178238
115.94044
116.71564
46.285056
45.844728
45.341554
117.06062
117.14531
117.06508
44.77076
116.84198
45.269769
45.240173
45.834901
46.543386
46.848984
47.912664
47.562116
48.332347
48.3591
48.093372
47.514891
47.200894
48.739327
49.06564
44.844838
43.617409
43.811591
43.541032
44.420157
44.091689
43.56678
43.830964
43.950969
45.284211
49.063201
51.285102
72.765938
69.802356
66.950411
63.713148
59.557336
54.932748
75.747132
98.97023
105.55471
110.56701
91.652043
84.823114
113.81838
115.64495
79.305744
116.56032
116.99685
46.707929
46.105431
45.476933
117.13047
117.06807
116.85475
45.267609
116.53662
45.93804
45.915377
46.770299
47.554988
48.534257
49.000207
48.392557
49.459559
49.352866
48.570346
48.235273
47.711318
49.829102
50.080745
44.916082
43.672951
43.866886
43.640873
44.467945
44.145832
43.774423
44.303968
44.714886
47.105188
49.30756
72.420628
69.670717
66.950214
63.657976
59.185252
55.065342
75.217045
97.4589
104.23271
109.56749
113.15432
90.223723
83.698822
115.25652
116.34649
78.548917
116.87754
117.0816
47.031977
46.278784
45.56555
117.05772
116.85584
116.53859
45.938965
116.28114
46.787531
46.784792
47.814039
48.299217
49.605199
49.110338
50.14124
49.272542
50.584162
49.884309
49.304071
48.801992
48.086611
50.858825
50.87746
44.970388
43.776964
43.951006
43.792466
44.515818
44.214115
44.089006
45.018197
45.805457
47.330506
51.222207
72.168079
69.640275
67.051283
63.424811
58.80904
53.791957
74.790507
102.89912
96.009877
108.53327
112.4332
114.80245
88.922499
82.713518
116.07839
116.71413
77.912464
116.97778
117.01534
47.23853
46.382263
45.623101
116.84545
116.52587
116.26707
46.792084
116.17766
47.805673
47.795439
48.864674
50.068696
50.697703
50.114881
51.281888
49.97181
51.60848
50.43221
49.912889
49.21314
48.318671
51.72526
51.49523
45.009568
43.885531
44.070815
44.00984
44.565504
44.295426
44.571303
46.067169
49.158658
72.024576
69.715671
67.259552
62.171184
59.43354
51.405883
56.378334
74.476836
101.60737
107.48235
94.672732
111.70119
114.31661
115.77703
87.768961
81.865753
116.51285
116.84255
77.388513
116.92941
116.8022
47.351218
46.437296
45.652175
116.50732
116.24227
116.15593
47.80647
116.21201
48.940671
48.917534
51.122497
51.886374
51.332023
52.281756
50.094663
51.192338
52.463202
50.99516
50.342431
49.458953
48.434374
52.380098
51.996243
45.039942
44.026207
44.013147
44.185072
44.343543
44.619837
44.38128
45.291546
47.474415
72.007263
69.924635
66.794863
63.794052
61.189194
53.509757
49.167406
58.572404
74.278136
106.46057
100.41288
110.96086
93.486474
113.84273
115.48606
116.30971
86.767944
81.13276
116.68396
116.79404
76.968501
116.71206
116.44852
47.399917
46.454155
45.662447
116.21143
116.12492
116.185
48.936782
116.36441
50.127068
51.899683
52.197534
52.898362
52.287154
53.085304
51.246482
50.122421
53.089626
51.406343
50.588582
49.572751
48.476585
52.841753
52.352707
45.067819
44.113643
44.212152
44.246457
44.838483
44.671298
44.452627
46.259248
72.087349
70.324396
65.440788
68.741802
63.247628
55.676811
50.993919
47.39743
60.701161
74.134027
110.23295
105.51443
99.350503
113.36301
92.458377
115.23918
116.13329
116.54525
85.888445
80.487896
116.70096
116.6532
116.58339
76.628253
116.35286
116.14568
47.408754
46.447871
45.667354
116.08713
116.1597
116.35798
116.62764
51.278605
52.897425
53.150255
53.587214
53.461278
52.273117
52.975741
53.637853
51.272601
53.500775
51.638653
50.697343
49.611502
48.479367
53.138002
52.551681
45.087734
44.401821
44.419432
44.669949
45.479721
44.714372
44.544072
72.112273
70.682312
67.03783
69.68033
65.212756
52.983942
57.926629
48.774402
46.219024
62.94737
73.970504
109.57754
112.90331
104.683
98.4294
114.92399
91.545909
116.04748
116.42344
116.61057
85.07029
79.920044
116.5931
116.42227
116.51139
116.22677
76.343046
116.04707
116.02364
47.388406
46.432366
45.666037
116.11585
116.34294
116.62817
116.97052
52.307039
53.625926
53.923448
54.03884
53.957207
53.09696
52.29727
53.982703
53.742416
51.736309
50.731549
49.606956
48.448774
53.293893
52.632647
45.102465
44.649665
44.58531
45.020634
44.769793
44.669609
72.13553
70.607071
68.623013
67.129191
55.310863
51.046937
60.250247
46.656486
45.438143
65.227689
73.847761
109.00897
112.49805
114.58956
103.96575
97.612046
115.697
90.659782
116.10131
116.44674
84.267772
79.44892
116.40835
116.26706
116.07589
116.35224
115.92598
76.045294
115.92331
116.0555
47.352434
46.410429
45.660442
116.29326
116.62983
116.96588
117.38608
53.155141
53.729625
54.040815
54.254374
54.320178
54.317664
53.1458
54.174138
53.857301
51.765112
50.720536
49.571831
48.38833
53.352667
52.65475
45.125294
44.88699
44.687088
44.740725
44.848521
44.810075
71.765658
69.975089
68.813021
57.471383
53.285181
50.85974
62.750201
46.458121
45.359203
67.278713
74.555815
108.51321
112.14511
114.34645
115.46764
103.33045
96.805675
115.89069
89.733764
116.12403
83.505071
79.035567
116.24181
116.11367
115.92287
115.78174
116.19241
115.79694
115.94592
116.22862
47.306775
46.384855
45.662491
116.56671
116.97405
117.36291
117.8349
53.802272
54.174765
53.78822
54.410108
54.51582
54.542687
54.464787
54.256209
53.894457
51.748148
50.682567
49.494292
48.309884
53.367441
52.634506
45.155084
44.909151
44.925578
44.948556
44.968413
72.998298
71.129081
70.306644
59.522258
54.677153
48.257529
51.980174
65.454281
45.981156
45.307214
69.131117
75.073621
108.07504
111.82349
114.13043
115.3324
102.71244
95.891062
115.80105
88.835745
116.01201
82.992399
77.849335
116.10338
115.96603
115.75425
115.61965
115.62693
116.04382
115.80034
116.0926
116.47852
47.257257
46.365009
45.669494
116.88054
117.35001
117.78822
118.28157
54.260907
54.501201
54.246074
54.640218
54.687024
54.653076
54.523121
54.279972
53.899924
51.707788
50.609696
49.369349
48.239787
53.345559
52.594937
45.19534
45.232081
45.064035
45.204992
72.073129
73.860413
71.54471
56.172186
60.801408
49.75367
46.858279
53.407957
67.710262
64.16035
45.656136
70.415846
76.183169
111.54366
107.67676
113.9304
115.1943
102.01976
94.811777
115.69109
88.072113
115.91446
84.393303
80.531985
115.99657
115.58222
115.80757
115.4213
115.42574
115.59478
115.91606
115.90545
116.28788
116.73307
47.210891
46.392787
45.596485
117.1963
117.73277
118.19982
118.66923
54.567211
54.55679
54.711195
54.774873
54.771181
54.693058
54.537139
54.272884
53.876027
51.64663
50.47938
49.25405
48.154743
53.30396
52.546269
45.254927